
Predictions were generated on 12-Jul-2023 at 11:06:09 using OpenFAST, compiled as a 64-bit application using single precision at commit -128-NOTFOUND
 linked with  NWTC Subroutine Library; ElastoDyn; ServoDyn; HydroDyn; MoorDyn (v2.0.0, 2022-12-08)

Description from the FAST input file: Generated with AeroElasticSE FAST driver

Time	PtfmHeave	PtfmPitch	PtfmRAxi	PtfmRAyi	PtfmRAzi	PtfmRoll	PtfmSurge	PtfmSway	PtfmTAxi	PtfmTAyi	PtfmTAzi	PtfmYaw	TTDspFA	TTDspSS	TwHt1ALxt	TwHt1ALyt	TwrBsFxt	TwrBsFyt	TwrBsFzt	TwrBsMxt	TwrBsMyt	TwrBsMzt	YawBrTAxp	YawBrTAyp	YawBrTAzp	SStC1_ZQ	SStC1_ZQD	SStC1_Fzl	SStC2_ZQ	SStC2_ZQD	SStC2_Fzl	SStC3_ZQ	SStC3_ZQD	SStC3_Fzl	Wave1Elev	FAIRTEN1	Invalid	Invalid	Invalid	Invalid	Invalid	Invalid	Invalid	Invalid	FAIRTEN2	Invalid	Invalid	Invalid	Invalid	Invalid	Invalid	Invalid	Invalid	FAIRTEN3	Invalid	Invalid	Invalid	Invalid	Invalid	Invalid	Invalid	Invalid
(s)	(m)	(deg)	(deg/s^2)	(deg/s^2)	(deg/s^2)	(deg)	(m)	(m)	(m/s^2)	(m/s^2)	(m/s^2)	(deg)	(m)	(m)	(m/s^2)	(m/s^2)	(kN)	(kN)	(kN)	(kN-m)	(kN-m)	(kN-m)	(m/s^2)	(m/s^2)	(m/s^2)	(m)	(m/s)	(kN)	(m)	(m/s)	(kN)	(m)	(m/s)	(kN)	(m)	(N)	 -	 -	 -	 -	 -	 -	 -	 -	(N)	 -	 -	 -	 -	 -	 -	 -	 -	(N)	 -	 -	 -	 -	 -	 -	 -	 -
    0.0000	 0.000E+00	 0.000E+00	-5.191E-02	 2.447E-02	 0.000E+00	 0.000E+00	 0.000E+00	 0.000E+00	 1.144E-02	-4.800E-03	 2.883E-02	 0.000E+00	 0.000E+00	-0.000E+00	 5.361E-02	 1.422E-02	-5.642E+02	-2.530E+00	-1.536E+04	 3.276E+01	-1.295E+04	 2.221E+00	 4.896E-01	-1.884E-03	 2.883E-02	 0.000E+00	 0.000E+00	-6.727E+03	 0.000E+00	 0.000E+00	-6.727E+03	 0.000E+00	 0.000E+00	-6.727E+03	-7.751E-03	 3.770E+06	 0.000E+00	 0.000E+00	 0.000E+00	 0.000E+00	 0.000E+00	 0.000E+00	 0.000E+00	 0.000E+00	 3.050E+06	 0.000E+00	 0.000E+00	 0.000E+00	 0.000E+00	 0.000E+00	 0.000E+00	 0.000E+00	 0.000E+00	 2.760E+06	 0.000E+00	 0.000E+00	 0.000E+00	 0.000E+00	 0.000E+00	 0.000E+00	 0.000E+00	 0.000E+00
    0.0500	 3.069E-05	 6.804E-05	-5.102E-02	 1.567E-01	 0.000E+00	-6.471E-05	 3.042E-05	-5.268E-06	 7.121E-02	-4.323E-03	 1.006E-02	 0.000E+00	 2.404E-04	-1.561E-04	 1.379E-01	 1.450E-02	 2.637E+02	-8.361E+00	-1.616E+04	 3.683E+02	 1.466E+04	-3.865E+00	-1.676E-01	 2.207E-03	 7.378E-03	-5.044E-05	-1.365E-03	-6.727E+03	 5.051E-05	 2.659E-03	-6.727E+03	-9.183E-05	-4.508E-03	-6.728E+03	-6.276E-03	 3.770E+06	 0.000E+00	 0.000E+00	 0.000E+00	 0.000E+00	 0.000E+00	 0.000E+00	 0.000E+00	 0.000E+00	 3.050E+06	 0.000E+00	 0.000E+00	 0.000E+00	 0.000E+00	 0.000E+00	 0.000E+00	 0.000E+00	 0.000E+00	 2.760E+06	 0.000E+00	 0.000E+00	 0.000E+00	 0.000E+00	 0.000E+00	 0.000E+00	 0.000E+00	 0.000E+00
    0.1000	 8.486E-05	 5.345E-04	-4.772E-02	 3.286E-01	 0.000E+00	-2.562E-04	 2.425E-04	-2.169E-05	 1.515E-01	-5.413E-03	-1.730E-02	 0.000E+00	-1.157E-03	-6.094E-04	 2.485E-01	 1.234E-02	 1.387E+03	-1.524E+01	-1.726E+04	 8.653E+02	 5.130E+04	-5.389E+00	-1.058E+00	 7.434E-03	-1.455E-02	-4.365E-05	 2.557E-03	-6.727E+03	 3.554E-04	 1.040E-02	-6.727E+03	-5.649E-04	-1.549E-02	-6.728E+03	-4.802E-03	 3.770E+06	 0.000E+00	 0.000E+00	 0.000E+00	 0.000E+00	 0.000E+00	 0.000E+00	 0.000E+00	 0.000E+00	 3.050E+06	 0.000E+00	 0.000E+00	 0.000E+00	 0.000E+00	 0.000E+00	 0.000E+00	 0.000E+00	 0.000E+00	 2.760E+06	 0.000E+00	 0.000E+00	 0.000E+00	 0.000E+00	 0.000E+00	 0.000E+00	 0.000E+00	 0.000E+00
    0.1500	 1.026E-04	 1.778E-03	-4.858E-02	 3.126E-01	 0.000E+00	-5.686E-04	 8.132E-04	-5.122E-05	 1.460E-01	-5.294E-03	-1.635E-02	 0.000E+00	-7.273E-03	-1.331E-03	 2.377E-01	 1.274E-02	 1.343E+03	-1.794E+01	-1.724E+04	 1.330E+03	 4.707E+04	 1.458E+01	-1.024E+00	 9.180E-03	-1.274E-02	 2.551E-04	 9.308E-03	-6.727E+03	 1.139E-03	 2.089E-02	-6.726E+03	-1.699E-03	-2.973E-02	-6.729E+03	-3.078E-03	 3.770E+06	 0.000E+00	 0.000E+00	 0.000E+00	 0.000E+00	 0.000E+00	 0.000E+00	 0.000E+00	 0.000E+00	 3.050E+06	 0.000E+00	 0.000E+00	 0.000E+00	 0.000E+00	 0.000E+00	 0.000E+00	 0.000E+00	 0.000E+00	 2.760E+06	 0.000E+00	 0.000E+00	 0.000E+00	 0.000E+00	 0.000E+00	 0.000E+00	 0.000E+00	 0.000E+00
    0.2000	 8.415E-05	 3.767E-03	-4.419E-02	 1.321E-01	 0.000E+00	-1.000E-03	 1.733E-03	-9.446E-05	 6.593E-02	-6.301E-03	 7.570E-03	 0.000E+00	-1.797E-02	-2.312E-03	 1.209E-01	 9.998E-03	 2.824E+02	-1.817E+01	-1.626E+04	 1.827E+03	 7.190E+03	 4.765E+01	-1.860E-01	 9.759E-03	 5.603E-03	 8.313E-04	 1.288E-02	-6.727E+03	 2.384E-03	 2.798E-02	-6.726E+03	-3.462E-03	-3.963E-02	-6.730E+03	-1.355E-03	 3.770E+06	 0.000E+00	 0.000E+00	 0.000E+00	 0.000E+00	 0.000E+00	 0.000E+00	 0.000E+00	 0.000E+00	 3.050E+06	 0.000E+00	 0.000E+00	 0.000E+00	 0.000E+00	 0.000E+00	 0.000E+00	 0.000E+00	 0.000E+00	 2.760E+06	 0.000E+00	 0.000E+00	 0.000E+00	 0.000E+00	 0.000E+00	 0.000E+00	 0.000E+00	 0.000E+00
    0.2500	 8.219E-05	 6.101E-03	-4.536E-02	 8.685E-03	 0.000E+00	-1.545E-03	 2.824E-03	-1.529E-04	 1.288E-02	-6.192E-03	 2.194E-02	 0.000E+00	-3.022E-02	-3.532E-03	 4.076E-02	 1.049E-02	-3.945E+02	-2.250E+01	-1.565E+04	 2.548E+03	-2.052E+04	 7.790E+01	 3.485E-01	 1.260E-02	 2.021E-02	 1.456E-03	 1.148E-02	-6.727E+03	 3.850E-03	 3.008E-02	-6.726E+03	-5.544E-03	-4.282E-02	-6.730E+03	 5.350E-04	 3.770E+06	 0.000E+00	 0.000E+00	 0.000E+00	 0.000E+00	 0.000E+00	 0.000E+00	 0.000E+00	 0.000E+00	 3.050E+06	 0.000E+00	 0.000E+00	 0.000E+00	 0.000E+00	 0.000E+00	 0.000E+00	 0.000E+00	 0.000E+00	 2.760E+06	 0.000E+00	 0.000E+00	 0.000E+00	 0.000E+00	 0.000E+00	 0.000E+00	 0.000E+00	 0.000E+00
    0.3000	 1.292E-04	 8.498E-03	-3.911E-02	 7.069E-02	 0.000E+00	-2.200E-03	 3.967E-03	-2.276E-04	 4.371E-02	-7.914E-03	 1.057E-02	 0.000E+00	-4.202E-02	-4.977E-03	 7.957E-02	 6.550E-03	 6.736E+01	-3.089E+01	-1.615E+04	 3.499E+03	-1.019E+04	 1.001E+02	-2.113E-02	 1.918E-02	 7.689E-03	 1.971E-03	 9.519E-03	-6.727E+03	 5.376E-03	 3.124E-02	-6.725E+03	-7.723E-03	-4.472E-02	-6.730E+03	 2.425E-03	 3.770E+06	 0.000E+00	 0.000E+00	 0.000E+00	 0.000E+00	 0.000E+00	 0.000E+00	 0.000E+00	 0.000E+00	 3.050E+06	 0.000E+00	 0.000E+00	 0.000E+00	 0.000E+00	 0.000E+00	 0.000E+00	 0.000E+00	 0.000E+00	 2.761E+06	 0.000E+00	 0.000E+00	 0.000E+00	 0.000E+00	 0.000E+00	 0.000E+00	 0.000E+00	 0.000E+00
    0.3500	 2.006E-04	 1.108E-02	-3.787E-02	 1.869E-01	 0.000E+00	-2.954E-03	 5.224E-03	-3.216E-04	 1.003E-01	-8.537E-03	-1.104E-02	 0.000E+00	-5.451E-02	-6.602E-03	 1.532E-01	 5.536E-03	 8.993E+02	-4.018E+01	-1.701E+04	 4.541E+03	 1.208E+04	 1.263E+02	-6.833E-01	 2.582E-02	-9.337E-03	 2.467E-03	 1.094E-02	-6.727E+03	 7.033E-03	 3.564E-02	-6.725E+03	-1.008E-02	-5.046E-02	-6.731E+03	 4.385E-03	 3.770E+06	 0.000E+00	 0.000E+00	 0.000E+00	 0.000E+00	 0.000E+00	 0.000E+00	 0.000E+00	 0.000E+00	 3.050E+06	 0.000E+00	 0.000E+00	 0.000E+00	 0.000E+00	 0.000E+00	 0.000E+00	 0.000E+00	 0.000E+00	 2.760E+06	 0.000E+00	 0.000E+00	 0.000E+00	 0.000E+00	 0.000E+00	 0.000E+00	 0.000E+00	 0.000E+00
    0.4000	 2.492E-04	 1.411E-02	-3.287E-02	 1.731E-01	 0.000E+00	-3.803E-03	 6.718E-03	-4.372E-04	 9.851E-02	-9.910E-03	-1.334E-02	 0.000E+00	-6.989E-02	-8.372E-03	 1.432E-01	 2.310E-03	 9.451E+02	-4.661E+01	-1.712E+04	 5.545E+03	 6.949E+03	 1.633E+02	-7.224E-01	 3.085E-02	-9.392E-03	 3.106E-03	 1.464E-02	-6.726E+03	 8.973E-03	 4.191E-02	-6.725E+03	-1.280E-02	-5.823E-02	-6.731E+03	 6.345E-03	 3.770E+06	 0.000E+00	 0.000E+00	 0.000E+00	 0.000E+00	 0.000E+00	 0.000E+00	 0.000E+00	 0.000E+00	 3.050E+06	 0.000E+00	 0.000E+00	 0.000E+00	 0.000E+00	 0.000E+00	 0.000E+00	 0.000E+00	 0.000E+00	 2.760E+06	 0.000E+00	 0.000E+00	 0.000E+00	 0.000E+00	 0.000E+00	 0.000E+00	 0.000E+00	 0.000E+00
    0.4500	 2.686E-04	 1.753E-02	-3.091E-02	 3.144E-02	 0.000E+00	-4.734E-03	 8.445E-03	-5.773E-04	 3.697E-02	-1.053E-02	 3.367E-03	 0.000E+00	-8.816E-02	-1.025E-02	 5.047E-02	 8.983E-04	 1.558E+02	-5.213E+01	-1.643E+04	 6.550E+03	-2.711E+04	 2.067E+02	-1.017E-01	 3.488E-02	 2.038E-03	 3.890E-03	 1.603E-02	-6.726E+03	 1.118E-02	 4.570E-02	-6.724E+03	-1.585E-02	-6.255E-02	-6.732E+03	 8.270E-03	 3.770E+06	 0.000E+00	 0.000E+00	 0.000E+00	 0.000E+00	 0.000E+00	 0.000E+00	 0.000E+00	 0.000E+00	 3.050E+06	 0.000E+00	 0.000E+00	 0.000E+00	 0.000E+00	 0.000E+00	 0.000E+00	 0.000E+00	 0.000E+00	 2.761E+06	 0.000E+00	 0.000E+00	 0.000E+00	 0.000E+00	 0.000E+00	 0.000E+00	 0.000E+00	 0.000E+00
    0.5000	 2.954E-04	 2.104E-02	-2.723E-02	-9.220E-02	 0.000E+00	-5.742E-03	 1.027E-02	-7.438E-04	-1.438E-02	-1.162E-02	 1.648E-02	 0.000E+00	-1.070E-01	-1.220E-02	-3.030E-02	-1.563E-03	-4.689E+02	-5.943E+01	-1.590E+04	 7.640E+03	-5.589E+04	 2.460E+02	 3.895E-01	 4.040E-02	 1.284E-02	 4.640E-03	 1.340E-02	-6.726E+03	 1.347E-02	 4.517E-02	-6.724E+03	-1.896E-02	-6.104E-02	-6.732E+03	 1.020E-02	 3.770E+06	 0.000E+00	 0.000E+00	 0.000E+00	 0.000E+00	 0.000E+00	 0.000E+00	 0.000E+00	 0.000E+00	 3.050E+06	 0.000E+00	 0.000E+00	 0.000E+00	 0.000E+00	 0.000E+00	 0.000E+00	 0.000E+00	 0.000E+00	 2.760E+06	 0.000E+00	 0.000E+00	 0.000E+00	 0.000E+00	 0.000E+00	 0.000E+00	 0.000E+00	 0.000E+00
    0.5500	 3.585E-04	 2.436E-02	-2.299E-02	-7.242E-02	 0.000E+00	-6.818E-03	 1.207E-02	-9.396E-04	-2.142E-03	-1.292E-02	 9.091E-03	 0.000E+00	-1.245E-01	-1.419E-02	-1.923E-02	-4.382E-03	-2.488E+02	-6.865E+01	-1.619E+04	 8.798E+03	-5.600E+04	 2.797E+02	 2.102E-01	 4.736E-02	 5.554E-03	 5.209E-03	 9.530E-03	-6.727E+03	 1.567E-02	 4.309E-02	-6.724E+03	-2.191E-02	-5.722E-02	-6.731E+03	 1.198E-02	 3.769E+06	 0.000E+00	 0.000E+00	 0.000E+00	 0.000E+00	 0.000E+00	 0.000E+00	 0.000E+00	 0.000E+00	 3.050E+06	 0.000E+00	 0.000E+00	 0.000E+00	 0.000E+00	 0.000E+00	 0.000E+00	 0.000E+00	 0.000E+00	 2.761E+06	 0.000E+00	 0.000E+00	 0.000E+00	 0.000E+00	 0.000E+00	 0.000E+00	 0.000E+00	 0.000E+00
    0.6000	 4.430E-04	 2.750E-02	-1.957E-02	 4.712E-03	 0.000E+00	-7.952E-03	 1.387E-02	-1.167E-03	 3.730E-02	-1.400E-02	-6.241E-03	 0.000E+00	-1.412E-01	-1.617E-02	 2.898E-02	-6.673E-03	 3.590E+02	-7.759E+01	-1.685E+04	 9.934E+03	-4.290E+04	 3.135E+02	-2.749E-01	 5.403E-02	-4.807E-03	 5.631E-03	 7.823E-03	-6.727E+03	 1.781E-02	 4.293E-02	-6.724E+03	-2.472E-02	-5.553E-02	-6.731E+03	 1.377E-02	 3.769E+06	 0.000E+00	 0.000E+00	 0.000E+00	 0.000E+00	 0.000E+00	 0.000E+00	 0.000E+00	 0.000E+00	 3.050E+06	 0.000E+00	 0.000E+00	 0.000E+00	 0.000E+00	 0.000E+00	 0.000E+00	 0.000E+00	 0.000E+00	 2.761E+06	 0.000E+00	 0.000E+00	 0.000E+00	 0.000E+00	 0.000E+00	 0.000E+00	 0.000E+00	 0.000E+00
    0.6500	 5.141E-04	 3.064E-02	-1.610E-02	 5.405E-04	 0.000E+00	-9.134E-03	 1.576E-02	-1.430E-03	 3.965E-02	-1.500E-02	-1.137E-02	 0.000E+00	-1.585E-01	-1.810E-02	 2.485E-02	-8.976E-03	 4.609E+02	-8.431E+01	-1.702E+04	 1.096E+04	-4.693E+04	 3.512E+02	-3.592E-01	 5.916E-02	-6.998E-03	 6.024E-03	 7.935E-03	-6.727E+03	 1.999E-02	 4.415E-02	-6.724E+03	-2.749E-02	-5.528E-02	-6.732E+03	 1.531E-02	 3.769E+06	 0.000E+00	 0.000E+00	 0.000E+00	 0.000E+00	 0.000E+00	 0.000E+00	 0.000E+00	 0.000E+00	 3.050E+06	 0.000E+00	 0.000E+00	 0.000E+00	 0.000E+00	 0.000E+00	 0.000E+00	 0.000E+00	 0.000E+00	 2.761E+06	 0.000E+00	 0.000E+00	 0.000E+00	 0.000E+00	 0.000E+00	 0.000E+00	 0.000E+00	 0.000E+00
    0.7000	 5.607E-04	 3.375E-02	-1.273E-02	-1.062E-01	 0.000E+00	-1.036E-02	 1.773E-02	-1.731E-03	-5.641E-03	-1.595E-02	 8.745E-04	 0.000E+00	-1.766E-01	-1.995E-02	-4.541E-02	-1.120E-02	-1.021E+02	-9.019E+01	-1.655E+04	 1.192E+04	-7.335E+04	 3.886E+02	 8.199E-02	 6.368E-02	 4.348E-04	 6.397E-03	 6.504E-03	-6.727E+03	 2.220E-02	 4.377E-02	-6.724E+03	-3.021E-02	-5.253E-02	-6.731E+03	 1.686E-02	 3.769E+06	 0.000E+00	 0.000E+00	 0.000E+00	 0.000E+00	 0.000E+00	 0.000E+00	 0.000E+00	 0.000E+00	 3.050E+06	 0.000E+00	 0.000E+00	 0.000E+00	 0.000E+00	 0.000E+00	 0.000E+00	 0.000E+00	 0.000E+00	 2.761E+06	 0.000E+00	 0.000E+00	 0.000E+00	 0.000E+00	 0.000E+00	 0.000E+00	 0.000E+00	 0.000E+00
    0.7500	 6.089E-04	 3.661E-02	-1.054E-02	-2.088E-01	 0.000E+00	-1.161E-02	 1.969E-02	-2.071E-03	-4.881E-02	-1.665E-02	 1.159E-02	 0.000E+00	-1.939E-01	-2.168E-02	-1.128E-01	-1.272E-02	-6.342E+02	-9.649E+01	-1.610E+04	 1.283E+04	-9.833E+04	 4.205E+02	 4.991E-01	 6.841E-02	 7.460E-03	 6.623E-03	 2.053E-03	-6.727E+03	 2.430E-02	 3.991E-02	-6.724E+03	-3.267E-02	-4.525E-02	-6.731E+03	 1.808E-02	 3.769E+06	 0.000E+00	 0.000E+00	 0.000E+00	 0.000E+00	 0.000E+00	 0.000E+00	 0.000E+00	 0.000E+00	 3.050E+06	 0.000E+00	 0.000E+00	 0.000E+00	 0.000E+00	 0.000E+00	 0.000E+00	 0.000E+00	 0.000E+00	 2.761E+06	 0.000E+00	 0.000E+00	 0.000E+00	 0.000E+00	 0.000E+00	 0.000E+00	 0.000E+00	 0.000E+00
    0.8000	 6.825E-04	 3.896E-02	-6.681E-03	-2.103E-01	 0.000E+00	-1.289E-02	 2.154E-02	-2.453E-03	-4.634E-02	-1.773E-02	 7.669E-03	 0.000E+00	-2.087E-01	-2.325E-02	-1.150E-01	-1.518E-02	-5.495E+02	-1.032E+02	-1.625E+04	 1.368E+04	-1.017E+05	 4.455E+02	 4.284E-01	 7.365E-02	 4.150E-03	 6.577E-03	-3.814E-03	-6.727E+03	 2.617E-02	 3.461E-02	-6.725E+03	-3.469E-02	-3.567E-02	-6.731E+03	 1.929E-02	 3.769E+06	 0.000E+00	 0.000E+00	 0.000E+00	 0.000E+00	 0.000E+00	 0.000E+00	 0.000E+00	 0.000E+00	 3.050E+06	 0.000E+00	 0.000E+00	 0.000E+00	 0.000E+00	 0.000E+00	 0.000E+00	 0.000E+00	 0.000E+00	 2.761E+06	 0.000E+00	 0.000E+00	 0.000E+00	 0.000E+00	 0.000E+00	 0.000E+00	 0.000E+00	 0.000E+00
    0.8500	 7.740E-04	 4.080E-02	-4.830E-03	-1.490E-01	 0.000E+00	-1.419E-02	 2.328E-02	-2.879E-03	-1.603E-02	-1.831E-02	-3.536E-03	 0.000E+00	-2.211E-01	-2.465E-02	-7.686E-02	-1.642E-02	-9.439E+01	-1.086E+02	-1.674E+04	 1.441E+04	-9.185E+04	 4.681E+02	 6.505E-02	 7.779E-02	-2.081E-03	 6.269E-03	-8.165E-03	-6.728E+03	 2.779E-02	 3.042E-02	-6.725E+03	-3.626E-02	-2.744E-02	-6.730E+03	 2.012E-02	 3.769E+06	 0.000E+00	 0.000E+00	 0.000E+00	 0.000E+00	 0.000E+00	 0.000E+00	 0.000E+00	 0.000E+00	 3.050E+06	 0.000E+00	 0.000E+00	 0.000E+00	 0.000E+00	 0.000E+00	 0.000E+00	 0.000E+00	 0.000E+00	 2.762E+06	 0.000E+00	 0.000E+00	 0.000E+00	 0.000E+00	 0.000E+00	 0.000E+00	 0.000E+00	 0.000E+00
    0.9000	 8.579E-04	 4.225E-02	-2.487E-03	-1.370E-01	 0.000E+00	-1.550E-02	 2.498E-02	-3.351E-03	-8.114E-03	-1.893E-02	-9.238E-03	 0.000E+00	-2.322E-01	-2.583E-02	-7.013E-02	-1.791E-02	 5.487E+01	-1.122E+02	-1.694E+04	 1.497E+04	-9.164E+04	 4.893E+02	-5.559E-02	 8.066E-02	-4.698E-03	 5.787E-03	-1.097E-02	-6.728E+03	 2.924E-02	 2.773E-02	-6.725E+03	-3.746E-02	-2.077E-02	-6.730E+03	 2.094E-02	 3.768E+06	 0.000E+00	 0.000E+00	 0.000E+00	 0.000E+00	 0.000E+00	 0.000E+00	 0.000E+00	 0.000E+00	 3.050E+06	 0.000E+00	 0.000E+00	 0.000E+00	 0.000E+00	 0.000E+00	 0.000E+00	 0.000E+00	 0.000E+00	 2.762E+06	 0.000E+00	 0.000E+00	 0.000E+00	 0.000E+00	 0.000E+00	 0.000E+00	 0.000E+00	 0.000E+00
    0.9500	 9.222E-04	 4.335E-02	-1.077E-03	-2.059E-01	 0.000E+00	-1.682E-02	 2.664E-02	-3.870E-03	-3.746E-02	-1.927E-02	-7.114E-04	 0.000E+00	-2.426E-01	-2.678E-02	-1.153E-01	-1.880E-02	-3.113E+02	-1.145E+02	-1.662E+04	 1.539E+04	-1.082E+05	 5.067E+02	 2.315E-01	 8.263E-02	-8.243E-05	 5.159E-03	-1.448E-02	-6.728E+03	 3.054E-02	 2.412E-02	-6.725E+03	-3.831E-02	-1.277E-02	-6.729E+03	 2.132E-02	 3.768E+06	 0.000E+00	 0.000E+00	 0.000E+00	 0.000E+00	 0.000E+00	 0.000E+00	 0.000E+00	 0.000E+00	 3.050E+06	 0.000E+00	 0.000E+00	 0.000E+00	 0.000E+00	 0.000E+00	 0.000E+00	 0.000E+00	 0.000E+00	 2.762E+06	 0.000E+00	 0.000E+00	 0.000E+00	 0.000E+00	 0.000E+00	 0.000E+00	 0.000E+00	 0.000E+00
    1.0000	 9.844E-04	 4.393E-02	-2.970E-04	-2.745E-01	 0.000E+00	-1.814E-02	 2.822E-02	-4.437E-03	-6.836E-02	-1.946E-02	 7.897E-03	 0.000E+00	-2.509E-01	-2.748E-02	-1.604E-01	-1.928E-02	-7.238E+02	-1.167E+02	-1.626E+04	 1.570E+04	-1.253E+05	 5.169E+02	 5.551E-01	 8.442E-02	 4.575E-03	 4.303E-03	-2.010E-02	-6.728E+03	 3.161E-02	 1.831E-02	-6.725E+03	-3.869E-02	-1.898E-03	-6.729E+03	 2.170E-02	 3.768E+06	 0.000E+00	 0.000E+00	 0.000E+00	 0.000E+00	 0.000E+00	 0.000E+00	 0.000E+00	 0.000E+00	 3.050E+06	 0.000E+00	 0.000E+00	 0.000E+00	 0.000E+00	 0.000E+00	 0.000E+00	 0.000E+00	 0.000E+00	 2.762E+06	 0.000E+00	 0.000E+00	 0.000E+00	 0.000E+00	 0.000E+00	 0.000E+00	 0.000E+00	 0.000E+00
    1.0500	 1.064E-03	 4.384E-02	 1.660E-03	-2.773E-01	 0.000E+00	-1.946E-02	 2.962E-02	-5.053E-03	-6.811E-02	-1.991E-02	 6.861E-03	 0.000E+00	-2.561E-01	-2.793E-02	-1.626E-01	-2.042E-02	-6.953E+02	-1.183E+02	-1.630E+04	 1.587E+04	-1.265E+05	 5.200E+02	 5.314E-01	 8.602E-02	 3.982E-03	 3.130E-03	-2.682E-02	-6.729E+03	 3.235E-02	 1.135E-02	-6.726E+03	-3.847E-02	 1.054E-02	-6.728E+03	 2.162E-02	 3.768E+06	 0.000E+00	 0.000E+00	 0.000E+00	 0.000E+00	 0.000E+00	 0.000E+00	 0.000E+00	 0.000E+00	 3.050E+06	 0.000E+00	 0.000E+00	 0.000E+00	 0.000E+00	 0.000E+00	 0.000E+00	 0.000E+00	 0.000E+00	 2.762E+06	 0.000E+00	 0.000E+00	 0.000E+00	 0.000E+00	 0.000E+00	 0.000E+00	 0.000E+00	 0.000E+00
    1.1000	 1.159E-03	 4.307E-02	 3.021E-05	-2.167E-01	 0.000E+00	-2.077E-02	 3.087E-02	-5.719E-03	-4.121E-02	-1.947E-02	-1.878E-03	 0.000E+00	-2.582E-01	-2.810E-02	-1.241E-01	-1.938E-02	-3.347E+02	-1.185E+02	-1.667E+04	 1.588E+04	-1.154E+05	 5.196E+02	 2.448E-01	 8.622E-02	-6.524E-04	 1.643E-03	-3.235E-02	-6.729E+03	 3.276E-02	 5.458E-03	-6.726E+03	-3.766E-02	 2.164E-02	-6.727E+03	 2.154E-02	 3.768E+06	 0.000E+00	 0.000E+00	 0.000E+00	 0.000E+00	 0.000E+00	 0.000E+00	 0.000E+00	 0.000E+00	 3.050E+06	 0.000E+00	 0.000E+00	 0.000E+00	 0.000E+00	 0.000E+00	 0.000E+00	 0.000E+00	 0.000E+00	 2.763E+06	 0.000E+00	 0.000E+00	 0.000E+00	 0.000E+00	 0.000E+00	 0.000E+00	 0.000E+00	 0.000E+00
    1.1500	 1.251E-03	 4.175E-02	 2.737E-03	-1.853E-01	 0.000E+00	-2.209E-02	 3.201E-02	-6.433E-03	-2.716E-02	-1.994E-02	-6.287E-03	 0.000E+00	-2.582E-01	-2.801E-02	-1.041E-01	-2.085E-02	-1.433E+02	-1.168E+02	-1.685E+04	 1.572E+04	-1.090E+05	 5.154E+02	 9.314E-02	 8.557E-02	-2.420E-03	-7.979E-05	-3.637E-02	-6.730E+03	 3.293E-02	 1.154E-03	-6.726E+03	-3.635E-02	 3.070E-02	-6.727E+03	 2.100E-02	 3.767E+06	 0.000E+00	 0.000E+00	 0.000E+00	 0.000E+00	 0.000E+00	 0.000E+00	 0.000E+00	 0.000E+00	 3.050E+06	 0.000E+00	 0.000E+00	 0.000E+00	 0.000E+00	 0.000E+00	 0.000E+00	 0.000E+00	 0.000E+00	 2.763E+06	 0.000E+00	 0.000E+00	 0.000E+00	 0.000E+00	 0.000E+00	 0.000E+00	 0.000E+00	 0.000E+00
    1.2000	 1.329E-03	 3.996E-02	-1.601E-03	-2.148E-01	 0.000E+00	-2.340E-02	 3.307E-02	-7.197E-03	-4.128E-02	-1.879E-02	-1.599E-03	 0.000E+00	-2.566E-01	-2.764E-02	-1.231E-01	-1.814E-02	-3.436E+02	-1.142E+02	-1.665E+04	 1.540E+04	-1.149E+05	 5.072E+02	 2.516E-01	 8.359E-02	-5.358E-04	-1.993E-03	-4.034E-02	-6.730E+03	 3.288E-02	-3.152E-03	-6.727E+03	-3.459E-02	 3.973E-02	-6.726E+03	 2.046E-02	 3.767E+06	 0.000E+00	 0.000E+00	 0.000E+00	 0.000E+00	 0.000E+00	 0.000E+00	 0.000E+00	 0.000E+00	 3.050E+06	 0.000E+00	 0.000E+00	 0.000E+00	 0.000E+00	 0.000E+00	 0.000E+00	 0.000E+00	 0.000E+00	 2.763E+06	 0.000E+00	 0.000E+00	 0.000E+00	 0.000E+00	 0.000E+00	 0.000E+00	 0.000E+00	 0.000E+00
    1.2500	 1.403E-03	 3.763E-02	 1.095E-03	-2.512E-01	 0.000E+00	-2.471E-02	 3.403E-02	-8.008E-03	-6.011E-02	-1.920E-02	 6.150E-03	 0.000E+00	-2.530E-01	-2.701E-02	-1.465E-01	-1.953E-02	-6.314E+02	-1.110E+02	-1.635E+04	 1.497E+04	-1.228E+05	 4.915E+02	 4.791E-01	 8.196E-02	 3.826E-03	-4.137E-03	-4.559E-02	-6.730E+03	 3.259E-02	-8.592E-03	-6.727E+03	-3.235E-02	 5.009E-02	-6.725E+03	 1.949E-02	 3.767E+06	 0.000E+00	 0.000E+00	 0.000E+00	 0.000E+00	 0.000E+00	 0.000E+00	 0.000E+00	 0.000E+00	 3.050E+06	 0.000E+00	 0.000E+00	 0.000E+00	 0.000E+00	 0.000E+00	 0.000E+00	 0.000E+00	 0.000E+00	 2.764E+06	 0.000E+00	 0.000E+00	 0.000E+00	 0.000E+00	 0.000E+00	 0.000E+00	 0.000E+00	 0.000E+00
    1.3000	 1.491E-03	 3.467E-02	-3.554E-03	-2.410E-01	 0.000E+00	-2.603E-02	 3.484E-02	-8.867E-03	-5.709E-02	-1.793E-02	 6.099E-03	 0.000E+00	-2.465E-01	-2.614E-02	-1.395E-01	-1.654E-02	-6.138E+02	-1.075E+02	-1.634E+04	 1.441E+04	-1.194E+05	 4.713E+02	 4.663E-01	 7.931E-02	 3.834E-03	-6.562E-03	-5.142E-02	-6.731E+03	 3.201E-02	-1.459E-02	-6.727E+03	-2.957E-02	 6.091E-02	-6.725E+03	 1.853E-02	 3.767E+06	 0.000E+00	 0.000E+00	 0.000E+00	 0.000E+00	 0.000E+00	 0.000E+00	 0.000E+00	 0.000E+00	 3.050E+06	 0.000E+00	 0.000E+00	 0.000E+00	 0.000E+00	 0.000E+00	 0.000E+00	 0.000E+00	 0.000E+00	 2.763E+06	 0.000E+00	 0.000E+00	 0.000E+00	 0.000E+00	 0.000E+00	 0.000E+00	 0.000E+00	 0.000E+00
    1.3500	 1.593E-03	 3.113E-02	-2.694E-03	-1.808E-01	 0.000E+00	-2.734E-02	 3.552E-02	-9.771E-03	-3.234E-02	-1.786E-02	-4.697E-05	 0.000E+00	-2.373E-01	-2.504E-02	-1.003E-01	-1.677E-02	-3.136E+02	-1.024E+02	-1.660E+04	 1.372E+04	-1.055E+05	 4.471E+02	 2.304E-01	 7.624E-02	 4.586E-04	-9.261E-03	-5.624E-02	-6.731E+03	 3.115E-02	-1.941E-02	-6.728E+03	-2.629E-02	 7.014E-02	-6.724E+03	 1.720E-02	 3.767E+06	 0.000E+00	 0.000E+00	 0.000E+00	 0.000E+00	 0.000E+00	 0.000E+00	 0.000E+00	 0.000E+00	 3.050E+06	 0.000E+00	 0.000E+00	 0.000E+00	 0.000E+00	 0.000E+00	 0.000E+00	 0.000E+00	 0.000E+00	 2.763E+06	 0.000E+00	 0.000E+00	 0.000E+00	 0.000E+00	 0.000E+00	 0.000E+00	 0.000E+00	 0.000E+00
    1.4000	 1.696E-03	 2.713E-02	-6.609E-03	-1.307E-01	 0.000E+00	-2.867E-02	 3.611E-02	-1.072E-02	-1.289E-02	-1.666E-02	-3.657E-03	 0.000E+00	-2.264E-01	-2.372E-02	-6.750E-02	-1.414E-02	-9.538E+01	-9.627E+01	-1.677E+04	 1.290E+04	-9.349E+04	 4.213E+02	 5.946E-02	 7.189E-02	-1.265E-03	-1.216E-02	-5.949E-02	-6.731E+03	 3.010E-02	-2.255E-02	-6.728E+03	-2.260E-02	 7.687E-02	-6.724E+03	 1.586E-02	 3.766E+06	 0.000E+00	 0.000E+00	 0.000E+00	 0.000E+00	 0.000E+00	 0.000E+00	 0.000E+00	 0.000E+00	 3.050E+06	 0.000E+00	 0.000E+00	 0.000E+00	 0.000E+00	 0.000E+00	 0.000E+00	 0.000E+00	 0.000E+00	 2.764E+06	 0.000E+00	 0.000E+00	 0.000E+00	 0.000E+00	 0.000E+00	 0.000E+00	 0.000E+00	 0.000E+00
    1.4500	 1.790E-03	 2.280E-02	-8.584E-03	-1.305E-01	 0.000E+00	-3.002E-02	 3.667E-02	-1.171E-02	-1.554E-02	-1.588E-02	-1.047E-03	 0.000E+00	-2.143E-01	-2.222E-02	-6.647E-02	-1.265E-02	-1.714E+02	-8.946E+01	-1.664E+04	 1.199E+04	-9.085E+04	 3.919E+02	 1.221E-01	 6.730E-02	-3.766E-04	-1.520E-02	-6.217E-02	-6.732E+03	 2.891E-02	-2.491E-02	-6.728E+03	-1.862E-02	 8.243E-02	-6.723E+03	 1.423E-02	 3.766E+06	 0.000E+00	 0.000E+00	 0.000E+00	 0.000E+00	 0.000E+00	 0.000E+00	 0.000E+00	 0.000E+00	 3.050E+06	 0.000E+00	 0.000E+00	 0.000E+00	 0.000E+00	 0.000E+00	 0.000E+00	 0.000E+00	 0.000E+00	 2.764E+06	 0.000E+00	 0.000E+00	 0.000E+00	 0.000E+00	 0.000E+00	 0.000E+00	 0.000E+00	 0.000E+00
    1.5000	 1.883E-03	 1.814E-02	-1.010E-02	-1.411E-01	 0.000E+00	-3.138E-02	 3.719E-02	-1.274E-02	-2.454E-02	-1.519E-02	 5.065E-03	 0.000E+00	-2.011E-01	-2.057E-02	-7.256E-02	-1.140E-02	-3.539E+02	-8.247E+01	-1.641E+04	 1.102E+04	-9.123E+04	 3.587E+02	 2.687E-01	 6.267E-02	 3.376E-03	-1.839E-02	-6.546E-02	-6.732E+03	 2.760E-02	-2.772E-02	-6.728E+03	-1.435E-02	 8.821E-02	-6.723E+03	 1.260E-02	 3.766E+06	 0.000E+00	 0.000E+00	 0.000E+00	 0.000E+00	 0.000E+00	 0.000E+00	 0.000E+00	 0.000E+00	 3.050E+06	 0.000E+00	 0.000E+00	 0.000E+00	 0.000E+00	 0.000E+00	 0.000E+00	 0.000E+00	 0.000E+00	 2.764E+06	 0.000E+00	 0.000E+00	 0.000E+00	 0.000E+00	 0.000E+00	 0.000E+00	 0.000E+00	 0.000E+00
    1.5500	 1.988E-03	 1.313E-02	-1.526E-02	-1.202E-01	 0.000E+00	-3.277E-02	 3.764E-02	-1.381E-02	-1.894E-02	-1.367E-02	 6.317E-03	 0.000E+00	-1.863E-01	-1.879E-02	-5.813E-02	-7.977E-03	-3.348E+02	-7.550E+01	-1.636E+04	 1.000E+04	-8.424E+04	 3.232E+02	 2.563E-01	 5.766E-02	 4.503E-03	-2.175E-02	-6.892E-02	-6.732E+03	 2.614E-02	-3.046E-02	-6.728E+03	-9.805E-03	 9.355E-02	-6.722E+03	 1.077E-02	 3.766E+06	 0.000E+00	 0.000E+00	 0.000E+00	 0.000E+00	 0.000E+00	 0.000E+00	 0.000E+00	 0.000E+00	 3.050E+06	 0.000E+00	 0.000E+00	 0.000E+00	 0.000E+00	 0.000E+00	 0.000E+00	 0.000E+00	 0.000E+00	 2.764E+06	 0.000E+00	 0.000E+00	 0.000E+00	 0.000E+00	 0.000E+00	 0.000E+00	 0.000E+00	 0.000E+00
    1.6000	 2.107E-03	 7.828E-03	-1.498E-02	-6.343E-02	 0.000E+00	-3.420E-02	 3.806E-02	-1.491E-02	 3.200E-03	-1.336E-02	 1.701E-03	 0.000E+00	-1.701E-01	-1.692E-02	-2.045E-02	-7.762E-03	-8.692E+01	-6.758E+01	-1.653E+04	 8.925E+03	-6.910E+04	 2.865E+02	 6.348E-02	 5.262E-02	 1.480E-03	-2.527E-02	-7.149E-02	-6.732E+03	 2.457E-02	-3.216E-02	-6.729E+03	-5.027E-03	 9.721E-02	-6.722E+03	 8.934E-03	 3.765E+06	 0.000E+00	 0.000E+00	 0.000E+00	 0.000E+00	 0.000E+00	 0.000E+00	 0.000E+00	 0.000E+00	 3.050E+06	 0.000E+00	 0.000E+00	 0.000E+00	 0.000E+00	 0.000E+00	 0.000E+00	 0.000E+00	 0.000E+00	 2.764E+06	 0.000E+00	 0.000E+00	 0.000E+00	 0.000E+00	 0.000E+00	 0.000E+00	 0.000E+00	 0.000E+00
    1.6500	 2.231E-03	 2.367E-03	-2.127E-02	-7.292E-03	 0.000E+00	-3.566E-02	 3.848E-02	-1.604E-02	 2.407E-02	-1.157E-02	-1.138E-03	 0.000E+00	-1.534E-01	-1.498E-02	 1.664E-02	-3.672E-03	 1.304E+02	-5.962E+01	-1.668E+04	 7.821E+03	-5.475E+04	 2.508E+02	-1.056E-01	 4.680E-02	-1.632E-04	-2.887E-02	-7.259E-02	-6.733E+03	 2.296E-02	-3.209E-02	-6.729E+03	-1.291E-04	 9.830E-02	-6.722E+03	 6.987E-03	 3.765E+06	 0.000E+00	 0.000E+00	 0.000E+00	 0.000E+00	 0.000E+00	 0.000E+00	 0.000E+00	 0.000E+00	 3.050E+06	 0.000E+00	 0.000E+00	 0.000E+00	 0.000E+00	 0.000E+00	 0.000E+00	 0.000E+00	 0.000E+00	 2.765E+06	 0.000E+00	 0.000E+00	 0.000E+00	 0.000E+00	 0.000E+00	 0.000E+00	 0.000E+00	 0.000E+00
    1.7000	 2.352E-03	-3.121E-03	-2.101E-02	 8.919E-03	 0.000E+00	-3.718E-02	 3.896E-02	-1.721E-02	 2.778E-02	-1.125E-02	 4.298E-04	 0.000E+00	-1.369E-01	-1.302E-02	 2.828E-02	-3.442E-03	 1.279E+02	-5.124E+01	-1.661E+04	 6.711E+03	-4.782E+04	 2.142E+02	-1.001E-01	 4.145E-02	 5.806E-04	-3.251E-02	-7.287E-02	-6.733E+03	 2.138E-02	-3.108E-02	-6.729E+03	 4.775E-03	 9.772E-02	-6.722E+03	 5.041E-03	 3.765E+06	 0.000E+00	 0.000E+00	 0.000E+00	 0.000E+00	 0.000E+00	 0.000E+00	 0.000E+00	 0.000E+00	 3.051E+06	 0.000E+00	 0.000E+00	 0.000E+00	 0.000E+00	 0.000E+00	 0.000E+00	 0.000E+00	 0.000E+00	 2.765E+06	 0.000E+00	 0.000E+00	 0.000E+00	 0.000E+00	 0.000E+00	 0.000E+00	 0.000E+00	 0.000E+00
    1.7500	 2.476E-03	-8.591E-03	-2.685E-02	 9.023E-03	 0.000E+00	-3.875E-02	 3.951E-02	-1.840E-02	 2.371E-02	-9.563E-03	 4.634E-03	 0.000E+00	-1.208E-01	-1.107E-02	 2.943E-02	 3.793E-04	 1.333E+01	-4.370E+01	-1.643E+04	 5.632E+03	-4.475E+04	 1.780E+02	-6.178E-03	 3.600E-02	 3.488E-03	-3.617E-02	-7.339E-02	-6.733E+03	 1.985E-02	-2.996E-02	-6.729E+03	 9.639E-03	 9.680E-02	-6.721E+03	 3.081E-03	 3.764E+06	 0.000E+00	 0.000E+00	 0.000E+00	 0.000E+00	 0.000E+00	 0.000E+00	 0.000E+00	 0.000E+00	 3.050E+06	 0.000E+00	 0.000E+00	 0.000E+00	 0.000E+00	 0.000E+00	 0.000E+00	 0.000E+00	 0.000E+00	 2.765E+06	 0.000E+00	 0.000E+00	 0.000E+00	 0.000E+00	 0.000E+00	 0.000E+00	 0.000E+00	 0.000E+00
    1.8000	 2.610E-03	-1.403E-02	-2.690E-02	 2.981E-02	 0.000E+00	-4.039E-02	 4.012E-02	-1.962E-02	 2.892E-02	-9.212E-03	 6.755E-03	 0.000E+00	-1.048E-01	-9.159E-03	 4.383E-02	 7.643E-04	 2.305E+01	-3.615E+01	-1.637E+04	 4.588E+03	-3.762E+04	 1.419E+02	-1.080E-02	 3.122E-02	 5.521E-03	-3.985E-02	-7.391E-02	-6.733E+03	 1.838E-02	-2.877E-02	-6.729E+03	 1.445E-02	 9.527E-02	-6.721E+03	 1.121E-03	 3.764E+06	 0.000E+00	 0.000E+00	 0.000E+00	 0.000E+00	 0.000E+00	 0.000E+00	 0.000E+00	 0.000E+00	 3.051E+06	 0.000E+00	 0.000E+00	 0.000E+00	 0.000E+00	 0.000E+00	 0.000E+00	 0.000E+00	 0.000E+00	 2.766E+06	 0.000E+00	 0.000E+00	 0.000E+00	 0.000E+00	 0.000E+00	 0.000E+00	 0.000E+00	 0.000E+00
    1.8500	 2.760E-03	-1.939E-02	-3.153E-02	 7.521E-02	 0.000E+00	-4.210E-02	 4.080E-02	-2.086E-02	 4.618E-02	-7.847E-03	 3.043E-03	 0.000E+00	-8.914E-02	-7.322E-03	 7.415E-02	 3.826E-03	 2.096E+02	-2.910E+01	-1.648E+04	 3.593E+03	-2.477E+04	 1.087E+02	-1.553E-01	 2.628E-02	 2.635E-03	-4.355E-02	-7.378E-02	-6.733E+03	 1.699E-02	-2.664E-02	-6.728E+03	 1.914E-02	 9.229E-02	-6.721E+03	-7.594E-04	 3.764E+06	 0.000E+00	 0.000E+00	 0.000E+00	 0.000E+00	 0.000E+00	 0.000E+00	 0.000E+00	 0.000E+00	 3.051E+06	 0.000E+00	 0.000E+00	 0.000E+00	 0.000E+00	 0.000E+00	 0.000E+00	 0.000E+00	 0.000E+00	 2.766E+06	 0.000E+00	 0.000E+00	 0.000E+00	 0.000E+00	 0.000E+00	 0.000E+00	 0.000E+00	 0.000E+00
    1.9000	 2.918E-03	-2.457E-02	-3.270E-02	 1.197E-01	 0.000E+00	-4.388E-02	 4.160E-02	-2.212E-02	 6.309E-02	-7.269E-03	 1.094E-03	 0.000E+00	-7.445E-02	-5.591E-03	 1.037E-01	 4.835E-03	 3.938E+02	-2.211E+01	-1.660E+04	 2.658E+03	-1.243E+04	 7.796E+01	-2.982E-01	 2.176E-02	 1.397E-03	-4.721E-02	-7.245E-02	-6.733E+03	 1.574E-02	-2.318E-02	-6.728E+03	 2.364E-02	 8.730E-02	-6.722E+03	-2.640E-03	 3.764E+06	 0.000E+00	 0.000E+00	 0.000E+00	 0.000E+00	 0.000E+00	 0.000E+00	 0.000E+00	 0.000E+00	 3.051E+06	 0.000E+00	 0.000E+00	 0.000E+00	 0.000E+00	 0.000E+00	 0.000E+00	 0.000E+00	 0.000E+00	 2.766E+06	 0.000E+00	 0.000E+00	 0.000E+00	 0.000E+00	 0.000E+00	 0.000E+00	 0.000E+00	 0.000E+00
    1.9500	 3.080E-03	-2.945E-02	-3.489E-02	 1.391E-01	 0.000E+00	-4.575E-02	 4.255E-02	-2.339E-02	 6.829E-02	-6.504E-03	 1.401E-03	 0.000E+00	-6.137E-02	-3.990E-03	 1.170E-01	 6.400E-03	 4.140E+02	-1.577E+01	-1.657E+04	 1.805E+03	-6.226E+03	 5.019E+01	-3.119E-01	 1.759E-02	 1.440E-03	-5.078E-02	-7.043E-02	-6.733E+03	 1.468E-02	-1.888E-02	-6.728E+03	 2.785E-02	 8.086E-02	-6.722E+03	-4.360E-03	 3.763E+06	 0.000E+00	 0.000E+00	 0.000E+00	 0.000E+00	 0.000E+00	 0.000E+00	 0.000E+00	 0.000E+00	 3.051E+06	 0.000E+00	 0.000E+00	 0.000E+00	 0.000E+00	 0.000E+00	 0.000E+00	 0.000E+00	 0.000E+00	 2.767E+06	 0.000E+00	 0.000E+00	 0.000E+00	 0.000E+00	 0.000E+00	 0.000E+00	 0.000E+00	 0.000E+00
    2.0000	 3.246E-03	-3.399E-02	-3.722E-02	 1.326E-01	 0.000E+00	-4.770E-02	 4.367E-02	-2.469E-02	 6.359E-02	-5.737E-03	 4.931E-03	 0.000E+00	-5.006E-02	-2.547E-03	 1.138E-01	 8.021E-03	 3.261E+02	-1.042E+01	-1.644E+04	 1.058E+03	-4.380E+03	 2.502E+01	-2.394E-01	 1.409E-02	 4.369E-03	-5.425E-02	-6.850E-02	-6.733E+03	 1.385E-02	-1.448E-02	-6.728E+03	 3.172E-02	 7.416E-02	-6.722E+03	-6.080E-03	 3.763E+06	 0.000E+00	 0.000E+00	 0.000E+00	 0.000E+00	 0.000E+00	 0.000E+00	 0.000E+00	 0.000E+00	 3.051E+06	 0.000E+00	 0.000E+00	 0.000E+00	 0.000E+00	 0.000E+00	 0.000E+00	 0.000E+00	 0.000E+00	 2.766E+06	 0.000E+00	 0.000E+00	 0.000E+00	 0.000E+00	 0.000E+00	 0.000E+00	 0.000E+00	 0.000E+00