
Predictions were generated on 04-Jul-2023 at 12:22:00 using OpenFAST, compiled as a 64-bit application using single precision at commit -128-NOTFOUND
 linked with  NWTC Subroutine Library; ElastoDyn; ServoDyn; HydroDyn; MoorDyn (v2.0.0, 2022-12-08)

Description from the FAST input file: Generated with AeroElasticSE FAST driver

Time	PtfmHeave	PtfmPitch	PtfmRAxi	PtfmRAyi	PtfmRAzi	PtfmRoll	PtfmSurge	PtfmSway	PtfmTAxi	PtfmTAyi	PtfmTAzi	PtfmYaw	TTDspFA	TTDspSS	TwHt1ALxt	TwHt1ALyt	TwrBsFxt	TwrBsFyt	TwrBsFzt	TwrBsMxt	TwrBsMyt	TwrBsMzt	YawBrTAxp	YawBrTAyp	YawBrTAzp	SStC1_ZQ	SStC1_ZQD	SStC1_Fzl	SStC2_ZQ	SStC2_ZQD	SStC2_Fzl	SStC3_ZQ	SStC3_ZQD	SStC3_Fzl	Wave1Elev	FAIRTEN1	Invalid	Invalid	Invalid	Invalid	Invalid	Invalid	Invalid	Invalid	FAIRTEN2	Invalid	Invalid	Invalid	Invalid	Invalid	Invalid	Invalid	Invalid	FAIRTEN3	Invalid	Invalid	Invalid	Invalid	Invalid	Invalid	Invalid	Invalid
(s)	(m)	(deg)	(deg/s^2)	(deg/s^2)	(deg/s^2)	(deg)	(m)	(m)	(m/s^2)	(m/s^2)	(m/s^2)	(deg)	(m)	(m)	(m/s^2)	(m/s^2)	(kN)	(kN)	(kN)	(kN-m)	(kN-m)	(kN-m)	(m/s^2)	(m/s^2)	(m/s^2)	(m)	(m/s)	(kN)	(m)	(m/s)	(kN)	(m)	(m/s)	(kN)	(m)	(N)	 -	 -	 -	 -	 -	 -	 -	 -	(N)	 -	 -	 -	 -	 -	 -	 -	 -	(N)	 -	 -	 -	 -	 -	 -	 -	 -
    0.0000	 0.000E+00	 0.000E+00	-5.191E-02	 2.282E-02	 0.000E+00	 0.000E+00	 0.000E+00	 0.000E+00	 1.136E-02	-4.798E-03	 3.025E-02	 0.000E+00	 0.000E+00	-0.000E+00	 5.293E-02	 1.422E-02	-5.642E+02	-2.531E+00	-1.537E+04	 3.277E+01	-1.295E+04	 2.221E+00	 4.897E-01	-1.884E-03	 3.025E-02	 0.000E+00	 0.000E+00	-6.727E+03	 0.000E+00	 0.000E+00	-6.727E+03	 0.000E+00	 0.000E+00	-6.727E+03	 0.000E+00	 3.770E+06	 0.000E+00	 0.000E+00	 0.000E+00	 0.000E+00	 0.000E+00	 0.000E+00	 0.000E+00	 0.000E+00	 3.050E+06	 0.000E+00	 0.000E+00	 0.000E+00	 0.000E+00	 0.000E+00	 0.000E+00	 0.000E+00	 0.000E+00	 2.760E+06	 0.000E+00	 0.000E+00	 0.000E+00	 0.000E+00	 0.000E+00	 0.000E+00	 0.000E+00	 0.000E+00
    0.0500	 3.243E-05	 6.598E-05	-5.102E-02	 1.550E-01	 0.000E+00	-6.472E-05	 3.030E-05	-5.266E-06	 7.110E-02	-4.322E-03	 1.140E-02	 0.000E+00	 2.458E-04	-1.562E-04	 1.372E-01	 1.450E-02	 2.640E+02	-8.363E+00	-1.616E+04	 3.683E+02	 1.467E+04	-3.866E+00	-1.677E-01	 2.207E-03	 8.712E-03	-5.311E-05	-1.471E-03	-6.727E+03	 4.785E-05	 2.554E-03	-6.727E+03	-9.170E-05	-4.502E-03	-6.728E+03	 0.000E+00	 3.770E+06	 0.000E+00	 0.000E+00	 0.000E+00	 0.000E+00	 0.000E+00	 0.000E+00	 0.000E+00	 0.000E+00	 3.050E+06	 0.000E+00	 0.000E+00	 0.000E+00	 0.000E+00	 0.000E+00	 0.000E+00	 0.000E+00	 0.000E+00	 2.760E+06	 0.000E+00	 0.000E+00	 0.000E+00	 0.000E+00	 0.000E+00	 0.000E+00	 0.000E+00	 0.000E+00
    0.1000	 9.166E-05	 5.263E-04	-4.773E-02	 3.270E-01	 0.000E+00	-2.563E-04	 2.420E-04	-2.168E-05	 1.514E-01	-5.411E-03	-1.605E-02	 0.000E+00	-1.136E-03	-6.095E-04	 2.478E-01	 1.235E-02	 1.388E+03	-1.524E+01	-1.726E+04	 8.655E+02	 5.133E+04	-5.391E+00	-1.059E+00	 7.435E-03	-1.329E-02	-5.416E-05	 2.351E-03	-6.727E+03	 3.450E-04	 1.020E-02	-6.727E+03	-5.643E-04	-1.548E-02	-6.728E+03	 0.000E+00	 3.770E+06	 0.000E+00	 0.000E+00	 0.000E+00	 0.000E+00	 0.000E+00	 0.000E+00	 0.000E+00	 0.000E+00	 3.050E+06	 0.000E+00	 0.000E+00	 0.000E+00	 0.000E+00	 0.000E+00	 0.000E+00	 0.000E+00	 0.000E+00	 2.760E+06	 0.000E+00	 0.000E+00	 0.000E+00	 0.000E+00	 0.000E+00	 0.000E+00	 0.000E+00	 0.000E+00
    0.1500	 1.176E-04	 1.760E-03	-4.858E-02	 3.110E-01	 0.000E+00	-5.687E-04	 8.120E-04	-5.120E-05	 1.459E-01	-5.293E-03	-1.516E-02	 0.000E+00	-7.227E-03	-1.331E-03	 2.370E-01	 1.274E-02	 1.344E+03	-1.795E+01	-1.725E+04	 1.330E+03	 4.712E+04	 1.458E+01	-1.025E+00	 9.181E-03	-1.155E-02	 2.318E-04	 9.006E-03	-6.727E+03	 1.116E-03	 2.059E-02	-6.726E+03	-1.697E-03	-2.971E-02	-6.729E+03	 0.000E+00	 3.770E+06	 0.000E+00	 0.000E+00	 0.000E+00	 0.000E+00	 0.000E+00	 0.000E+00	 0.000E+00	 0.000E+00	 3.050E+06	 0.000E+00	 0.000E+00	 0.000E+00	 0.000E+00	 0.000E+00	 0.000E+00	 0.000E+00	 0.000E+00	 2.760E+06	 0.000E+00	 0.000E+00	 0.000E+00	 0.000E+00	 0.000E+00	 0.000E+00	 0.000E+00	 0.000E+00
    0.2000	 1.103E-04	 3.735E-03	-4.419E-02	 1.305E-01	 0.000E+00	-1.000E-03	 1.731E-03	-9.443E-05	 6.579E-02	-6.300E-03	 8.686E-03	 0.000E+00	-1.789E-02	-2.312E-03	 1.201E-01	 1.000E-02	 2.831E+02	-1.818E+01	-1.626E+04	 1.827E+03	 7.245E+03	 4.766E+01	-1.863E-01	 9.760E-03	 6.718E-03	 7.906E-04	 1.249E-02	-6.727E+03	 2.344E-03	 2.758E-02	-6.726E+03	-3.459E-03	-3.959E-02	-6.730E+03	 0.000E+00	 3.770E+06	 0.000E+00	 0.000E+00	 0.000E+00	 0.000E+00	 0.000E+00	 0.000E+00	 0.000E+00	 0.000E+00	 3.050E+06	 0.000E+00	 0.000E+00	 0.000E+00	 0.000E+00	 0.000E+00	 0.000E+00	 0.000E+00	 0.000E+00	 2.760E+06	 0.000E+00	 0.000E+00	 0.000E+00	 0.000E+00	 0.000E+00	 0.000E+00	 0.000E+00	 0.000E+00
    0.2500	 1.223E-04	 6.050E-03	-4.536E-02	 7.120E-03	 0.000E+00	-1.545E-03	 2.821E-03	-1.529E-04	 1.275E-02	-6.191E-03	 2.299E-02	 0.000E+00	-3.010E-02	-3.532E-03	 4.006E-02	 1.049E-02	-3.938E+02	-2.250E+01	-1.566E+04	 2.548E+03	-2.045E+04	 7.791E+01	 3.482E-01	 1.260E-02	 2.126E-02	 1.393E-03	 1.100E-02	-6.727E+03	 3.788E-03	 2.960E-02	-6.726E+03	-5.539E-03	-4.277E-02	-6.730E+03	 0.000E+00	 3.770E+06	 0.000E+00	 0.000E+00	 0.000E+00	 0.000E+00	 0.000E+00	 0.000E+00	 0.000E+00	 0.000E+00	 3.050E+06	 0.000E+00	 0.000E+00	 0.000E+00	 0.000E+00	 0.000E+00	 0.000E+00	 0.000E+00	 0.000E+00	 2.760E+06	 0.000E+00	 0.000E+00	 0.000E+00	 0.000E+00	 0.000E+00	 0.000E+00	 0.000E+00	 0.000E+00
    0.3000	 1.859E-04	 8.426E-03	-3.911E-02	 6.923E-02	 0.000E+00	-2.200E-03	 3.962E-03	-2.275E-04	 4.362E-02	-7.913E-03	 1.154E-02	 0.000E+00	-4.184E-02	-4.978E-03	 7.893E-02	 6.552E-03	 6.838E+01	-3.090E+01	-1.615E+04	 3.499E+03	-1.008E+04	 1.001E+02	-2.169E-02	 1.919E-02	 8.661E-03	 1.882E-03	 8.955E-03	-6.727E+03	 5.288E-03	 3.068E-02	-6.725E+03	-7.714E-03	-4.465E-02	-6.730E+03	 0.000E+00	 3.770E+06	 0.000E+00	 0.000E+00	 0.000E+00	 0.000E+00	 0.000E+00	 0.000E+00	 0.000E+00	 0.000E+00	 3.050E+06	 0.000E+00	 0.000E+00	 0.000E+00	 0.000E+00	 0.000E+00	 0.000E+00	 0.000E+00	 0.000E+00	 2.761E+06	 0.000E+00	 0.000E+00	 0.000E+00	 0.000E+00	 0.000E+00	 0.000E+00	 0.000E+00	 0.000E+00
    0.3500	 2.763E-04	 1.099E-02	-3.787E-02	 1.856E-01	 0.000E+00	-2.955E-03	 5.217E-03	-3.215E-04	 1.003E-01	-8.537E-03	-1.016E-02	 0.000E+00	-5.427E-02	-6.603E-03	 1.527E-01	 5.537E-03	 9.008E+02	-4.019E+01	-1.701E+04	 4.541E+03	 1.223E+04	 1.263E+02	-6.842E-01	 2.583E-02	-8.452E-03	 2.348E-03	 1.030E-02	-6.727E+03	 6.914E-03	 3.500E-02	-6.725E+03	-1.007E-02	-5.037E-02	-6.731E+03	 0.000E+00	 3.770E+06	 0.000E+00	 0.000E+00	 0.000E+00	 0.000E+00	 0.000E+00	 0.000E+00	 0.000E+00	 0.000E+00	 3.050E+06	 0.000E+00	 0.000E+00	 0.000E+00	 0.000E+00	 0.000E+00	 0.000E+00	 0.000E+00	 0.000E+00	 2.760E+06	 0.000E+00	 0.000E+00	 0.000E+00	 0.000E+00	 0.000E+00	 0.000E+00	 0.000E+00	 0.000E+00
    0.4000	 3.461E-04	 1.398E-02	-3.287E-02	 1.719E-01	 0.000E+00	-3.803E-03	 6.709E-03	-4.371E-04	 9.853E-02	-9.909E-03	-1.253E-02	 0.000E+00	-6.958E-02	-8.373E-03	 1.428E-01	 2.310E-03	 9.469E+02	-4.662E+01	-1.712E+04	 5.546E+03	 7.137E+03	 1.633E+02	-7.236E-01	 3.086E-02	-8.590E-03	 2.954E-03	 1.393E-02	-6.726E+03	 8.821E-03	 4.121E-02	-6.725E+03	-1.279E-02	-5.813E-02	-6.731E+03	 0.000E+00	 3.770E+06	 0.000E+00	 0.000E+00	 0.000E+00	 0.000E+00	 0.000E+00	 0.000E+00	 0.000E+00	 0.000E+00	 3.050E+06	 0.000E+00	 0.000E+00	 0.000E+00	 0.000E+00	 0.000E+00	 0.000E+00	 0.000E+00	 0.000E+00	 2.760E+06	 0.000E+00	 0.000E+00	 0.000E+00	 0.000E+00	 0.000E+00	 0.000E+00	 0.000E+00	 0.000E+00
    0.4500	 3.887E-04	 1.737E-02	-3.091E-02	 3.036E-02	 0.000E+00	-4.734E-03	 8.435E-03	-5.772E-04	 3.705E-02	-1.053E-02	 4.099E-03	 0.000E+00	-8.779E-02	-1.025E-02	 5.015E-02	 8.985E-04	 1.577E+02	-5.213E+01	-1.643E+04	 6.551E+03	-2.689E+04	 2.067E+02	-1.029E-01	 3.489E-02	 2.771E-03	 3.700E-03	 1.527E-02	-6.726E+03	 1.099E-02	 4.493E-02	-6.724E+03	-1.582E-02	-6.243E-02	-6.732E+03	 0.000E+00	 3.770E+06	 0.000E+00	 0.000E+00	 0.000E+00	 0.000E+00	 0.000E+00	 0.000E+00	 0.000E+00	 0.000E+00	 3.050E+06	 0.000E+00	 0.000E+00	 0.000E+00	 0.000E+00	 0.000E+00	 0.000E+00	 0.000E+00	 0.000E+00	 2.761E+06	 0.000E+00	 0.000E+00	 0.000E+00	 0.000E+00	 0.000E+00	 0.000E+00	 0.000E+00	 0.000E+00
    0.5000	 4.406E-04	 2.085E-02	-2.723E-02	-9.316E-02	 0.000E+00	-5.743E-03	 1.026E-02	-7.437E-04	-1.423E-02	-1.162E-02	 1.714E-02	 0.000E+00	-1.066E-01	-1.220E-02	-3.051E-02	-1.564E-03	-4.670E+02	-5.944E+01	-1.590E+04	 7.641E+03	-5.564E+04	 2.460E+02	 3.882E-01	 4.040E-02	 1.351E-02	 4.410E-03	 1.258E-02	-6.727E+03	 1.324E-02	 4.436E-02	-6.724E+03	-1.893E-02	-6.092E-02	-6.732E+03	 0.000E+00	 3.770E+06	 0.000E+00	 0.000E+00	 0.000E+00	 0.000E+00	 0.000E+00	 0.000E+00	 0.000E+00	 0.000E+00	 3.050E+06	 0.000E+00	 0.000E+00	 0.000E+00	 0.000E+00	 0.000E+00	 0.000E+00	 0.000E+00	 0.000E+00	 2.760E+06	 0.000E+00	 0.000E+00	 0.000E+00	 0.000E+00	 0.000E+00	 0.000E+00	 0.000E+00	 0.000E+00
    0.5500	 5.304E-04	 2.413E-02	-2.299E-02	-7.320E-02	 0.000E+00	-6.818E-03	 1.206E-02	-9.394E-04	-1.899E-03	-1.292E-02	 9.668E-03	 0.000E+00	-1.240E-01	-1.419E-02	-1.927E-02	-4.383E-03	-2.465E+02	-6.866E+01	-1.619E+04	 8.799E+03	-5.570E+04	 2.797E+02	 2.086E-01	 4.736E-02	 6.142E-03	 4.937E-03	 8.662E-03	-6.727E+03	 1.540E-02	 4.222E-02	-6.724E+03	-2.188E-02	-5.708E-02	-6.731E+03	 0.000E+00	 3.769E+06	 0.000E+00	 0.000E+00	 0.000E+00	 0.000E+00	 0.000E+00	 0.000E+00	 0.000E+00	 0.000E+00	 3.050E+06	 0.000E+00	 0.000E+00	 0.000E+00	 0.000E+00	 0.000E+00	 0.000E+00	 0.000E+00	 0.000E+00	 2.761E+06	 0.000E+00	 0.000E+00	 0.000E+00	 0.000E+00	 0.000E+00	 0.000E+00	 0.000E+00	 0.000E+00
    0.6000	 6.430E-04	 2.723E-02	-1.957E-02	 4.126E-03	 0.000E+00	-7.953E-03	 1.386E-02	-1.167E-03	 3.765E-02	-1.400E-02	-5.746E-03	 0.000E+00	-1.406E-01	-1.617E-02	 2.912E-02	-6.674E-03	 3.618E+02	-7.760E+01	-1.685E+04	 9.935E+03	-4.255E+04	 3.135E+02	-2.768E-01	 5.404E-02	-4.314E-03	 5.315E-03	 6.918E-03	-6.727E+03	 1.750E-02	 4.203E-02	-6.724E+03	-2.468E-02	-5.539E-02	-6.731E+03	 0.000E+00	 3.769E+06	 0.000E+00	 0.000E+00	 0.000E+00	 0.000E+00	 0.000E+00	 0.000E+00	 0.000E+00	 0.000E+00	 3.050E+06	 0.000E+00	 0.000E+00	 0.000E+00	 0.000E+00	 0.000E+00	 0.000E+00	 0.000E+00	 0.000E+00	 2.761E+06	 0.000E+00	 0.000E+00	 0.000E+00	 0.000E+00	 0.000E+00	 0.000E+00	 0.000E+00	 0.000E+00
    0.6500	 7.434E-04	 3.033E-02	-1.610E-02	 1.370E-04	 0.000E+00	-9.135E-03	 1.574E-02	-1.430E-03	 4.012E-02	-1.500E-02	-1.095E-02	 0.000E+00	-1.578E-01	-1.810E-02	 2.516E-02	-8.978E-03	 4.640E+02	-8.432E+01	-1.702E+04	 1.096E+04	-4.654E+04	 3.513E+02	-3.614E-01	 5.916E-02	-6.588E-03	 5.662E-03	 7.001E-03	-6.727E+03	 1.963E-02	 4.322E-02	-6.724E+03	-2.744E-02	-5.515E-02	-6.732E+03	 0.000E+00	 3.769E+06	 0.000E+00	 0.000E+00	 0.000E+00	 0.000E+00	 0.000E+00	 0.000E+00	 0.000E+00	 0.000E+00	 3.050E+06	 0.000E+00	 0.000E+00	 0.000E+00	 0.000E+00	 0.000E+00	 0.000E+00	 0.000E+00	 0.000E+00	 2.761E+06	 0.000E+00	 0.000E+00	 0.000E+00	 0.000E+00	 0.000E+00	 0.000E+00	 0.000E+00	 0.000E+00
    0.7000	 8.205E-04	 3.340E-02	-1.272E-02	-1.065E-01	 0.000E+00	-1.036E-02	 1.772E-02	-1.730E-03	-5.073E-03	-1.595E-02	 1.218E-03	 0.000E+00	-1.759E-01	-1.995E-02	-4.494E-02	-1.121E-02	-9.885E+01	-9.020E+01	-1.655E+04	 1.192E+04	-7.293E+04	 3.887E+02	 7.972E-02	 6.369E-02	 7.776E-04	 5.988E-03	 5.548E-03	-6.727E+03	 2.179E-02	 4.282E-02	-6.724E+03	-3.015E-02	-5.240E-02	-6.731E+03	 0.000E+00	 3.769E+06	 0.000E+00	 0.000E+00	 0.000E+00	 0.000E+00	 0.000E+00	 0.000E+00	 0.000E+00	 0.000E+00	 3.050E+06	 0.000E+00	 0.000E+00	 0.000E+00	 0.000E+00	 0.000E+00	 0.000E+00	 0.000E+00	 0.000E+00	 2.761E+06	 0.000E+00	 0.000E+00	 0.000E+00	 0.000E+00	 0.000E+00	 0.000E+00	 0.000E+00	 0.000E+00
    0.7500	 8.999E-04	 3.621E-02	-1.054E-02	-2.089E-01	 0.000E+00	-1.161E-02	 1.968E-02	-2.071E-03	-4.813E-02	-1.666E-02	 1.186E-02	 0.000E+00	-1.931E-01	-2.168E-02	-1.122E-01	-1.273E-02	-6.309E+02	-9.650E+01	-1.610E+04	 1.283E+04	-9.788E+04	 4.205E+02	 4.968E-01	 6.842E-02	 7.741E-03	 6.165E-03	 1.083E-03	-6.727E+03	 2.385E-02	 3.895E-02	-6.724E+03	-3.260E-02	-4.513E-02	-6.731E+03	 0.000E+00	 3.769E+06	 0.000E+00	 0.000E+00	 0.000E+00	 0.000E+00	 0.000E+00	 0.000E+00	 0.000E+00	 0.000E+00	 3.050E+06	 0.000E+00	 0.000E+00	 0.000E+00	 0.000E+00	 0.000E+00	 0.000E+00	 0.000E+00	 0.000E+00	 2.761E+06	 0.000E+00	 0.000E+00	 0.000E+00	 0.000E+00	 0.000E+00	 0.000E+00	 0.000E+00	 0.000E+00
    0.8000	 1.006E-03	 3.852E-02	-6.677E-03	-2.102E-01	 0.000E+00	-1.289E-02	 2.154E-02	-2.453E-03	-4.553E-02	-1.773E-02	 7.861E-03	 0.000E+00	-2.078E-01	-2.326E-02	-1.142E-01	-1.518E-02	-5.460E+02	-1.032E+02	-1.625E+04	 1.369E+04	-1.013E+05	 4.455E+02	 4.258E-01	 7.366E-02	 4.350E-03	 6.071E-03	-4.792E-03	-6.727E+03	 2.566E-02	 3.364E-02	-6.725E+03	-3.462E-02	-3.556E-02	-6.731E+03	 0.000E+00	 3.769E+06	 0.000E+00	 0.000E+00	 0.000E+00	 0.000E+00	 0.000E+00	 0.000E+00	 0.000E+00	 0.000E+00	 3.050E+06	 0.000E+00	 0.000E+00	 0.000E+00	 0.000E+00	 0.000E+00	 0.000E+00	 0.000E+00	 0.000E+00	 2.761E+06	 0.000E+00	 0.000E+00	 0.000E+00	 0.000E+00	 0.000E+00	 0.000E+00	 0.000E+00	 0.000E+00
    0.8500	 1.129E-03	 4.032E-02	-4.825E-03	-1.488E-01	 0.000E+00	-1.419E-02	 2.328E-02	-2.879E-03	-1.508E-02	-1.831E-02	-3.423E-03	 0.000E+00	-2.202E-01	-2.465E-02	-7.582E-02	-1.642E-02	-9.057E+01	-1.086E+02	-1.674E+04	 1.441E+04	-9.134E+04	 4.681E+02	 6.224E-02	 7.780E-02	-1.974E-03	 5.714E-03	-9.141E-03	-6.728E+03	 2.723E-02	 2.945E-02	-6.725E+03	-3.619E-02	-2.734E-02	-6.730E+03	 0.000E+00	 3.769E+06	 0.000E+00	 0.000E+00	 0.000E+00	 0.000E+00	 0.000E+00	 0.000E+00	 0.000E+00	 0.000E+00	 3.050E+06	 0.000E+00	 0.000E+00	 0.000E+00	 0.000E+00	 0.000E+00	 0.000E+00	 0.000E+00	 0.000E+00	 2.762E+06	 0.000E+00	 0.000E+00	 0.000E+00	 0.000E+00	 0.000E+00	 0.000E+00	 0.000E+00	 0.000E+00
    0.9000	 1.246E-03	 4.173E-02	-2.483E-03	-1.367E-01	 0.000E+00	-1.550E-02	 2.499E-02	-3.351E-03	-7.029E-03	-1.893E-02	-9.200E-03	 0.000E+00	-2.313E-01	-2.583E-02	-6.892E-02	-1.792E-02	 5.884E+01	-1.122E+02	-1.694E+04	 1.497E+04	-9.110E+04	 4.893E+02	-5.855E-02	 8.067E-02	-4.675E-03	 5.184E-03	-1.194E-02	-6.728E+03	 2.864E-02	 2.676E-02	-6.725E+03	-3.738E-02	-2.069E-02	-6.730E+03	 0.000E+00	 3.768E+06	 0.000E+00	 0.000E+00	 0.000E+00	 0.000E+00	 0.000E+00	 0.000E+00	 0.000E+00	 0.000E+00	 3.050E+06	 0.000E+00	 0.000E+00	 0.000E+00	 0.000E+00	 0.000E+00	 0.000E+00	 0.000E+00	 0.000E+00	 2.762E+06	 0.000E+00	 0.000E+00	 0.000E+00	 0.000E+00	 0.000E+00	 0.000E+00	 0.000E+00	 0.000E+00
    0.9500	 1.343E-03	 4.279E-02	-1.073E-03	-2.054E-01	 0.000E+00	-1.682E-02	 2.666E-02	-3.870E-03	-3.625E-02	-1.927E-02	-7.436E-04	 0.000E+00	-2.416E-01	-2.678E-02	-1.139E-01	-1.880E-02	-3.074E+02	-1.145E+02	-1.662E+04	 1.539E+04	-1.076E+05	 5.067E+02	 2.286E-01	 8.263E-02	-1.212E-04	 4.508E-03	-1.543E-02	-6.728E+03	 2.989E-02	 2.317E-02	-6.725E+03	-3.823E-02	-1.271E-02	-6.729E+03	 0.000E+00	 3.768E+06	 0.000E+00	 0.000E+00	 0.000E+00	 0.000E+00	 0.000E+00	 0.000E+00	 0.000E+00	 0.000E+00	 3.050E+06	 0.000E+00	 0.000E+00	 0.000E+00	 0.000E+00	 0.000E+00	 0.000E+00	 0.000E+00	 0.000E+00	 2.762E+06	 0.000E+00	 0.000E+00	 0.000E+00	 0.000E+00	 0.000E+00	 0.000E+00	 0.000E+00	 0.000E+00
    1.0000	 1.438E-03	 4.333E-02	-2.918E-04	-2.739E-01	 0.000E+00	-1.814E-02	 2.825E-02	-4.437E-03	-6.703E-02	-1.946E-02	 7.793E-03	 0.000E+00	-2.499E-01	-2.749E-02	-1.589E-01	-1.929E-02	-7.200E+02	-1.167E+02	-1.626E+04	 1.570E+04	-1.248E+05	 5.169E+02	 5.522E-01	 8.443E-02	 4.477E-03	 3.604E-03	-2.103E-02	-6.729E+03	 3.091E-02	 1.738E-02	-6.725E+03	-3.861E-02	-1.858E-03	-6.729E+03	 0.000E+00	 3.768E+06	 0.000E+00	 0.000E+00	 0.000E+00	 0.000E+00	 0.000E+00	 0.000E+00	 0.000E+00	 0.000E+00	 3.050E+06	 0.000E+00	 0.000E+00	 0.000E+00	 0.000E+00	 0.000E+00	 0.000E+00	 0.000E+00	 0.000E+00	 2.763E+06	 0.000E+00	 0.000E+00	 0.000E+00	 0.000E+00	 0.000E+00	 0.000E+00	 0.000E+00	 0.000E+00
    1.0500	 1.550E-03	 4.320E-02	 1.665E-03	-2.767E-01	 0.000E+00	-1.946E-02	 2.968E-02	-5.053E-03	-6.664E-02	-1.991E-02	 6.686E-03	 0.000E+00	-2.551E-01	-2.793E-02	-1.609E-01	-2.043E-02	-6.916E+02	-1.183E+02	-1.630E+04	 1.587E+04	-1.260E+05	 5.200E+02	 5.285E-01	 8.603E-02	 3.811E-03	 2.385E-03	-2.772E-02	-6.729E+03	 3.161E-02	 1.045E-02	-6.726E+03	-3.839E-02	 1.056E-02	-6.728E+03	 0.000E+00	 3.768E+06	 0.000E+00	 0.000E+00	 0.000E+00	 0.000E+00	 0.000E+00	 0.000E+00	 0.000E+00	 0.000E+00	 3.050E+06	 0.000E+00	 0.000E+00	 0.000E+00	 0.000E+00	 0.000E+00	 0.000E+00	 0.000E+00	 0.000E+00	 2.762E+06	 0.000E+00	 0.000E+00	 0.000E+00	 0.000E+00	 0.000E+00	 0.000E+00	 0.000E+00	 0.000E+00
    1.1000	 1.678E-03	 4.240E-02	 3.500E-05	-2.159E-01	 0.000E+00	-2.078E-02	 3.094E-02	-5.718E-03	-3.961E-02	-1.947E-02	-2.125E-03	 0.000E+00	-2.572E-01	-2.810E-02	-1.223E-01	-1.939E-02	-3.309E+02	-1.185E+02	-1.667E+04	 1.588E+04	-1.148E+05	 5.196E+02	 2.419E-01	 8.623E-02	-9.077E-04	 8.537E-04	-3.323E-02	-6.729E+03	 3.198E-02	 4.583E-03	-6.726E+03	-3.757E-02	 2.164E-02	-6.727E+03	 0.000E+00	 3.768E+06	 0.000E+00	 0.000E+00	 0.000E+00	 0.000E+00	 0.000E+00	 0.000E+00	 0.000E+00	 0.000E+00	 3.050E+06	 0.000E+00	 0.000E+00	 0.000E+00	 0.000E+00	 0.000E+00	 0.000E+00	 0.000E+00	 0.000E+00	 2.763E+06	 0.000E+00	 0.000E+00	 0.000E+00	 0.000E+00	 0.000E+00	 0.000E+00	 0.000E+00	 0.000E+00
    1.1500	 1.801E-03	 4.105E-02	 2.742E-03	-1.845E-01	 0.000E+00	-2.209E-02	 3.211E-02	-6.433E-03	-2.543E-02	-1.994E-02	-6.601E-03	 0.000E+00	-2.573E-01	-2.801E-02	-1.021E-01	-2.085E-02	-1.397E+02	-1.168E+02	-1.685E+04	 1.572E+04	-1.084E+05	 5.154E+02	 9.027E-02	 8.557E-02	-2.748E-03	-9.118E-04	-3.721E-02	-6.730E+03	 3.210E-02	 3.156E-04	-6.726E+03	-3.626E-02	 3.068E-02	-6.727E+03	 0.000E+00	 3.767E+06	 0.000E+00	 0.000E+00	 0.000E+00	 0.000E+00	 0.000E+00	 0.000E+00	 0.000E+00	 0.000E+00	 3.050E+06	 0.000E+00	 0.000E+00	 0.000E+00	 0.000E+00	 0.000E+00	 0.000E+00	 0.000E+00	 0.000E+00	 2.763E+06	 0.000E+00	 0.000E+00	 0.000E+00	 0.000E+00	 0.000E+00	 0.000E+00	 0.000E+00	 0.000E+00
    1.2000	 1.909E-03	 3.922E-02	-1.596E-03	-2.140E-01	 0.000E+00	-2.340E-02	 3.320E-02	-7.197E-03	-3.944E-02	-1.880E-02	-1.980E-03	 0.000E+00	-2.557E-01	-2.764E-02	-1.210E-01	-1.814E-02	-3.403E+02	-1.142E+02	-1.665E+04	 1.540E+04	-1.144E+05	 5.072E+02	 2.489E-01	 8.360E-02	-9.230E-04	-2.866E-03	-4.114E-02	-6.730E+03	 3.201E-02	-3.951E-03	-6.727E+03	-3.451E-02	 3.969E-02	-6.726E+03	 0.000E+00	 3.767E+06	 0.000E+00	 0.000E+00	 0.000E+00	 0.000E+00	 0.000E+00	 0.000E+00	 0.000E+00	 0.000E+00	 3.050E+06	 0.000E+00	 0.000E+00	 0.000E+00	 0.000E+00	 0.000E+00	 0.000E+00	 0.000E+00	 0.000E+00	 2.763E+06	 0.000E+00	 0.000E+00	 0.000E+00	 0.000E+00	 0.000E+00	 0.000E+00	 0.000E+00	 0.000E+00
    1.2500	 2.013E-03	 3.685E-02	 1.100E-03	-2.505E-01	 0.000E+00	-2.471E-02	 3.419E-02	-8.008E-03	-5.817E-02	-1.920E-02	 5.708E-03	 0.000E+00	-2.522E-01	-2.701E-02	-1.443E-01	-1.953E-02	-6.285E+02	-1.110E+02	-1.635E+04	 1.497E+04	-1.224E+05	 4.915E+02	 4.767E-01	 8.196E-02	 3.385E-03	-5.049E-03	-4.634E-02	-6.730E+03	 3.168E-02	-9.348E-03	-6.727E+03	-3.227E-02	 5.004E-02	-6.725E+03	 0.000E+00	 3.767E+06	 0.000E+00	 0.000E+00	 0.000E+00	 0.000E+00	 0.000E+00	 0.000E+00	 0.000E+00	 0.000E+00	 3.050E+06	 0.000E+00	 0.000E+00	 0.000E+00	 0.000E+00	 0.000E+00	 0.000E+00	 0.000E+00	 0.000E+00	 2.764E+06	 0.000E+00	 0.000E+00	 0.000E+00	 0.000E+00	 0.000E+00	 0.000E+00	 0.000E+00	 0.000E+00
    1.3000	 2.130E-03	 3.387E-02	-3.550E-03	-2.403E-01	 0.000E+00	-2.603E-02	 3.505E-02	-8.867E-03	-5.504E-02	-1.793E-02	 5.591E-03	 0.000E+00	-2.458E-01	-2.614E-02	-1.372E-01	-1.655E-02	-6.112E+02	-1.075E+02	-1.634E+04	 1.441E+04	-1.190E+05	 4.713E+02	 4.642E-01	 7.931E-02	 3.330E-03	-7.511E-03	-5.213E-02	-6.731E+03	 3.106E-02	-1.530E-02	-6.727E+03	-2.949E-02	 6.085E-02	-6.725E+03	 0.000E+00	 3.767E+06	 0.000E+00	 0.000E+00	 0.000E+00	 0.000E+00	 0.000E+00	 0.000E+00	 0.000E+00	 0.000E+00	 3.050E+06	 0.000E+00	 0.000E+00	 0.000E+00	 0.000E+00	 0.000E+00	 0.000E+00	 0.000E+00	 0.000E+00	 2.763E+06	 0.000E+00	 0.000E+00	 0.000E+00	 0.000E+00	 0.000E+00	 0.000E+00	 0.000E+00	 0.000E+00
    1.3500	 2.259E-03	 3.030E-02	-2.691E-03	-1.801E-01	 0.000E+00	-2.735E-02	 3.577E-02	-9.771E-03	-3.018E-02	-1.786E-02	-6.165E-04	 0.000E+00	-2.367E-01	-2.504E-02	-9.787E-02	-1.677E-02	-3.114E+02	-1.024E+02	-1.660E+04	 1.372E+04	-1.051E+05	 4.471E+02	 2.284E-01	 7.624E-02	-1.136E-04	-1.024E-02	-5.691E-02	-6.731E+03	 3.017E-02	-2.007E-02	-6.728E+03	-2.621E-02	 7.008E-02	-6.724E+03	 0.000E+00	 3.766E+06	 0.000E+00	 0.000E+00	 0.000E+00	 0.000E+00	 0.000E+00	 0.000E+00	 0.000E+00	 0.000E+00	 3.050E+06	 0.000E+00	 0.000E+00	 0.000E+00	 0.000E+00	 0.000E+00	 0.000E+00	 0.000E+00	 0.000E+00	 2.763E+06	 0.000E+00	 0.000E+00	 0.000E+00	 0.000E+00	 0.000E+00	 0.000E+00	 0.000E+00	 0.000E+00
    1.4000	 2.388E-03	 2.628E-02	-6.605E-03	-1.301E-01	 0.000E+00	-2.867E-02	 3.641E-02	-1.072E-02	-1.064E-02	-1.666E-02	-4.286E-03	 0.000E+00	-2.258E-01	-2.372E-02	-6.504E-02	-1.414E-02	-9.365E+01	-9.627E+01	-1.676E+04	 1.290E+04	-9.319E+04	 4.213E+02	 5.779E-02	 7.189E-02	-1.898E-03	-1.317E-02	-6.010E-02	-6.731E+03	 2.908E-02	-2.317E-02	-6.728E+03	-2.253E-02	 7.681E-02	-6.724E+03	 0.000E+00	 3.766E+06	 0.000E+00	 0.000E+00	 0.000E+00	 0.000E+00	 0.000E+00	 0.000E+00	 0.000E+00	 0.000E+00	 3.050E+06	 0.000E+00	 0.000E+00	 0.000E+00	 0.000E+00	 0.000E+00	 0.000E+00	 0.000E+00	 0.000E+00	 2.764E+06	 0.000E+00	 0.000E+00	 0.000E+00	 0.000E+00	 0.000E+00	 0.000E+00	 0.000E+00	 0.000E+00
    1.4500	 2.507E-03	 2.192E-02	-8.581E-03	-1.301E-01	 0.000E+00	-3.002E-02	 3.703E-02	-1.171E-02	-1.321E-02	-1.588E-02	-1.731E-03	 0.000E+00	-2.139E-01	-2.222E-02	-6.397E-02	-1.265E-02	-1.703E+02	-8.945E+01	-1.664E+04	 1.199E+04	-9.063E+04	 3.919E+02	 1.208E-01	 6.730E-02	-1.060E-03	-1.624E-02	-6.274E-02	-6.732E+03	 2.787E-02	-2.548E-02	-6.728E+03	-1.855E-02	 8.238E-02	-6.723E+03	 0.000E+00	 3.766E+06	 0.000E+00	 0.000E+00	 0.000E+00	 0.000E+00	 0.000E+00	 0.000E+00	 0.000E+00	 0.000E+00	 3.050E+06	 0.000E+00	 0.000E+00	 0.000E+00	 0.000E+00	 0.000E+00	 0.000E+00	 0.000E+00	 0.000E+00	 2.764E+06	 0.000E+00	 0.000E+00	 0.000E+00	 0.000E+00	 0.000E+00	 0.000E+00	 0.000E+00	 0.000E+00
    1.5000	 2.622E-03	 1.723E-02	-1.009E-02	-1.408E-01	 0.000E+00	-3.138E-02	 3.760E-02	-1.274E-02	-2.213E-02	-1.519E-02	 4.325E-03	 0.000E+00	-2.008E-01	-2.057E-02	-7.003E-02	-1.140E-02	-3.535E+02	-8.246E+01	-1.640E+04	 1.102E+04	-9.108E+04	 3.587E+02	 2.678E-01	 6.266E-02	 2.642E-03	-1.946E-02	-6.597E-02	-6.732E+03	 2.653E-02	-2.823E-02	-6.728E+03	-1.429E-02	 8.817E-02	-6.723E+03	 0.000E+00	 3.766E+06	 0.000E+00	 0.000E+00	 0.000E+00	 0.000E+00	 0.000E+00	 0.000E+00	 0.000E+00	 0.000E+00	 3.050E+06	 0.000E+00	 0.000E+00	 0.000E+00	 0.000E+00	 0.000E+00	 0.000E+00	 0.000E+00	 0.000E+00	 2.764E+06	 0.000E+00	 0.000E+00	 0.000E+00	 0.000E+00	 0.000E+00	 0.000E+00	 0.000E+00	 0.000E+00
    1.5500	 2.748E-03	 1.220E-02	-1.526E-02	-1.201E-01	 0.000E+00	-3.277E-02	 3.813E-02	-1.381E-02	-1.646E-02	-1.367E-02	 5.527E-03	 0.000E+00	-1.861E-01	-1.879E-02	-5.559E-02	-7.977E-03	-3.349E+02	-7.549E+01	-1.636E+04	 9.999E+03	-8.418E+04	 3.232E+02	 2.559E-01	 5.766E-02	 3.717E-03	-2.284E-02	-6.939E-02	-6.732E+03	 2.505E-02	-3.093E-02	-6.728E+03	-9.739E-03	 9.354E-02	-6.722E+03	 0.000E+00	 3.766E+06	 0.000E+00	 0.000E+00	 0.000E+00	 0.000E+00	 0.000E+00	 0.000E+00	 0.000E+00	 0.000E+00	 3.050E+06	 0.000E+00	 0.000E+00	 0.000E+00	 0.000E+00	 0.000E+00	 0.000E+00	 0.000E+00	 0.000E+00	 2.765E+06	 0.000E+00	 0.000E+00	 0.000E+00	 0.000E+00	 0.000E+00	 0.000E+00	 0.000E+00	 0.000E+00
    1.6000	 2.885E-03	 6.880E-03	-1.498E-02	-6.339E-02	 0.000E+00	-3.420E-02	 3.862E-02	-1.491E-02	 5.751E-03	-1.336E-02	 8.588E-04	 0.000E+00	-1.701E-01	-1.691E-02	-1.789E-02	-7.762E-03	-8.767E+01	-6.757E+01	-1.653E+04	 8.924E+03	-6.912E+04	 2.865E+02	 6.346E-02	 5.262E-02	 6.415E-04	-2.638E-02	-7.191E-02	-6.732E+03	 2.345E-02	-3.258E-02	-6.729E+03	-4.960E-03	 9.723E-02	-6.722E+03	 0.000E+00	 3.765E+06	 0.000E+00	 0.000E+00	 0.000E+00	 0.000E+00	 0.000E+00	 0.000E+00	 0.000E+00	 0.000E+00	 3.050E+06	 0.000E+00	 0.000E+00	 0.000E+00	 0.000E+00	 0.000E+00	 0.000E+00	 0.000E+00	 0.000E+00	 2.764E+06	 0.000E+00	 0.000E+00	 0.000E+00	 0.000E+00	 0.000E+00	 0.000E+00	 0.000E+00	 0.000E+00
    1.6500	 3.026E-03	 1.398E-03	-2.127E-02	-7.420E-03	 0.000E+00	-3.567E-02	 3.912E-02	-1.604E-02	 2.668E-02	-1.157E-02	-2.027E-03	 0.000E+00	-1.536E-01	-1.498E-02	 1.920E-02	-3.671E-03	 1.290E+02	-5.961E+01	-1.668E+04	 7.819E+03	-5.486E+04	 2.507E+02	-1.052E-01	 4.679E-02	-1.047E-03	-3.001E-02	-7.297E-02	-6.733E+03	 2.182E-02	-3.246E-02	-6.729E+03	-5.960E-05	 9.837E-02	-6.722E+03	 0.000E+00	 3.765E+06	 0.000E+00	 0.000E+00	 0.000E+00	 0.000E+00	 0.000E+00	 0.000E+00	 0.000E+00	 0.000E+00	 3.050E+06	 0.000E+00	 0.000E+00	 0.000E+00	 0.000E+00	 0.000E+00	 0.000E+00	 0.000E+00	 0.000E+00	 2.765E+06	 0.000E+00	 0.000E+00	 0.000E+00	 0.000E+00	 0.000E+00	 0.000E+00	 0.000E+00	 0.000E+00
    1.7000	 3.162E-03	-4.113E-03	-2.101E-02	 8.609E-03	 0.000E+00	-3.718E-02	 3.969E-02	-1.721E-02	 3.044E-02	-1.125E-02	-5.061E-04	 0.000E+00	-1.372E-01	-1.302E-02	 3.082E-02	-3.441E-03	 1.257E+02	-5.122E+01	-1.660E+04	 6.709E+03	-4.803E+04	 2.141E+02	-9.918E-02	 4.144E-02	-3.489E-04	-3.367E-02	-7.320E-02	-6.733E+03	 2.022E-02	-3.141E-02	-6.729E+03	 4.849E-03	 9.785E-02	-6.721E+03	 0.000E+00	 3.765E+06	 0.000E+00	 0.000E+00	 0.000E+00	 0.000E+00	 0.000E+00	 0.000E+00	 0.000E+00	 0.000E+00	 3.051E+06	 0.000E+00	 0.000E+00	 0.000E+00	 0.000E+00	 0.000E+00	 0.000E+00	 0.000E+00	 0.000E+00	 2.765E+06	 0.000E+00	 0.000E+00	 0.000E+00	 0.000E+00	 0.000E+00	 0.000E+00	 0.000E+00	 0.000E+00
    1.7500	 3.297E-03	-9.605E-03	-2.685E-02	 8.522E-03	 0.000E+00	-3.875E-02	 4.033E-02	-1.840E-02	 2.641E-02	-9.562E-03	 3.658E-03	 0.000E+00	-1.213E-01	-1.106E-02	 3.195E-02	 3.811E-04	 1.043E+01	-4.369E+01	-1.642E+04	 5.630E+03	-4.505E+04	 1.779E+02	-4.736E-03	 3.599E-02	 2.516E-03	-3.734E-02	-7.367E-02	-6.733E+03	 1.868E-02	-3.025E-02	-6.729E+03	 9.721E-03	 9.700E-02	-6.721E+03	 0.000E+00	 3.764E+06	 0.000E+00	 0.000E+00	 0.000E+00	 0.000E+00	 0.000E+00	 0.000E+00	 0.000E+00	 0.000E+00	 3.050E+06	 0.000E+00	 0.000E+00	 0.000E+00	 0.000E+00	 0.000E+00	 0.000E+00	 0.000E+00	 0.000E+00	 2.765E+06	 0.000E+00	 0.000E+00	 0.000E+00	 0.000E+00	 0.000E+00	 0.000E+00	 0.000E+00	 0.000E+00
    1.8000	 3.442E-03	-1.507E-02	-2.690E-02	 2.913E-02	 0.000E+00	-4.039E-02	 4.103E-02	-1.962E-02	 3.166E-02	-9.210E-03	 5.740E-03	 0.000E+00	-1.054E-01	-9.155E-03	 4.632E-02	 7.661E-04	 1.944E+01	-3.613E+01	-1.637E+04	 4.586E+03	-3.801E+04	 1.418E+02	-8.875E-03	 3.121E-02	 4.506E-03	-4.103E-02	-7.415E-02	-6.733E+03	 1.720E-02	-2.901E-02	-6.729E+03	 1.454E-02	 9.554E-02	-6.721E+03	 0.000E+00	 3.764E+06	 0.000E+00	 0.000E+00	 0.000E+00	 0.000E+00	 0.000E+00	 0.000E+00	 0.000E+00	 0.000E+00	 3.051E+06	 0.000E+00	 0.000E+00	 0.000E+00	 0.000E+00	 0.000E+00	 0.000E+00	 0.000E+00	 0.000E+00	 2.766E+06	 0.000E+00	 0.000E+00	 0.000E+00	 0.000E+00	 0.000E+00	 0.000E+00	 0.000E+00	 0.000E+00
    1.8500	 3.599E-03	-2.046E-02	-3.153E-02	 7.435E-02	 0.000E+00	-4.210E-02	 4.182E-02	-2.086E-02	 4.895E-02	-7.845E-03	 1.990E-03	 0.000E+00	-8.995E-02	-7.318E-03	 7.660E-02	 3.829E-03	 2.054E+02	-2.908E+01	-1.648E+04	 3.591E+03	-2.525E+04	 1.086E+02	-1.529E-01	 2.626E-02	 1.582E-03	-4.474E-02	-7.399E-02	-6.733E+03	 1.579E-02	-2.685E-02	-6.728E+03	 1.925E-02	 9.264E-02	-6.721E+03	 0.000E+00	 3.764E+06	 0.000E+00	 0.000E+00	 0.000E+00	 0.000E+00	 0.000E+00	 0.000E+00	 0.000E+00	 0.000E+00	 3.050E+06	 0.000E+00	 0.000E+00	 0.000E+00	 0.000E+00	 0.000E+00	 0.000E+00	 0.000E+00	 0.000E+00	 2.766E+06	 0.000E+00	 0.000E+00	 0.000E+00	 0.000E+00	 0.000E+00	 0.000E+00	 0.000E+00	 0.000E+00
    1.9000	 3.761E-03	-2.566E-02	-3.270E-02	 1.186E-01	 0.000E+00	-4.388E-02	 4.274E-02	-2.212E-02	 6.590E-02	-7.267E-03	 2.959E-06	 0.000E+00	-7.543E-02	-5.587E-03	 1.062E-01	 4.838E-03	 3.889E+02	-2.209E+01	-1.660E+04	 2.656E+03	-1.300E+04	 7.787E+01	-2.954E-01	 2.175E-02	 3.097E-04	-4.841E-02	-7.262E-02	-6.733E+03	 1.453E-02	-2.336E-02	-6.728E+03	 2.377E-02	 8.775E-02	-6.721E+03	 0.000E+00	 3.763E+06	 0.000E+00	 0.000E+00	 0.000E+00	 0.000E+00	 0.000E+00	 0.000E+00	 0.000E+00	 0.000E+00	 3.051E+06	 0.000E+00	 0.000E+00	 0.000E+00	 0.000E+00	 0.000E+00	 0.000E+00	 0.000E+00	 0.000E+00	 2.766E+06	 0.000E+00	 0.000E+00	 0.000E+00	 0.000E+00	 0.000E+00	 0.000E+00	 0.000E+00	 0.000E+00
    1.9500	 3.924E-03	-3.057E-02	-3.489E-02	 1.379E-01	 0.000E+00	-4.575E-02	 4.381E-02	-2.339E-02	 7.112E-02	-6.503E-03	 2.816E-04	 0.000E+00	-6.250E-02	-3.986E-03	 1.194E-01	 6.402E-03	 4.084E+02	-1.575E+01	-1.657E+04	 1.802E+03	-6.886E+03	 5.010E+01	-3.086E-01	 1.757E-02	 3.223E-04	-5.199E-02	-7.056E-02	-6.733E+03	 1.347E-02	-1.902E-02	-6.728E+03	 2.800E-02	 8.142E-02	-6.722E+03	 0.000E+00	 3.763E+06	 0.000E+00	 0.000E+00	 0.000E+00	 0.000E+00	 0.000E+00	 0.000E+00	 0.000E+00	 0.000E+00	 3.051E+06	 0.000E+00	 0.000E+00	 0.000E+00	 0.000E+00	 0.000E+00	 0.000E+00	 0.000E+00	 0.000E+00	 2.767E+06	 0.000E+00	 0.000E+00	 0.000E+00	 0.000E+00	 0.000E+00	 0.000E+00	 0.000E+00	 0.000E+00
    2.0000	 4.089E-03	-3.515E-02	-3.722E-02	 1.313E-01	 0.000E+00	-4.770E-02	 4.506E-02	-2.469E-02	 6.644E-02	-5.735E-03	 3.784E-03	 0.000E+00	-5.134E-02	-2.542E-03	 1.161E-01	 8.025E-03	 3.199E+02	-1.040E+01	-1.643E+04	 1.055E+03	-5.122E+03	 2.492E+01	-2.357E-01	 1.408E-02	 3.216E-03	-5.547E-02	-6.861E-02	-6.733E+03	 1.263E-02	-1.459E-02	-6.728E+03	 3.191E-02	 7.483E-02	-6.722E+03	 0.000E+00	 3.763E+06	 0.000E+00	 0.000E+00	 0.000E+00	 0.000E+00	 0.000E+00	 0.000E+00	 0.000E+00	 0.000E+00	 3.051E+06	 0.000E+00	 0.000E+00	 0.000E+00	 0.000E+00	 0.000E+00	 0.000E+00	 0.000E+00	 0.000E+00	 2.767E+06	 0.000E+00	 0.000E+00	 0.000E+00	 0.000E+00	 0.000E+00	 0.000E+00	 0.000E+00	 0.000E+00